<?xml version="1.0" encoding="ISO-8859-1"?>
<modeling>
 <generator>
  <i name="program" type="string">vasp </i>
  <i name="version" type="string">5.3.3  </i>
  <i name="subversion" type="string">18Dez12 (build Feb 04 2014 23:58:42) complex                          parallel </i>
  <i name="platform" type="string">LinuxIFC </i>
  <i name="date" type="string">2019 04 27 </i>
  <i name="time" type="string">10:24:30 </i>
 </generator>
 <incar>
  <i type="string" name="SYSTEM">Al</i>
  <i type="int" name="ISTART">     1</i>
  <i type="string" name="PREC">accurate</i>
  <i type="int" name="ICHARG">    11</i>
  <i type="int" name="IBRION">     2</i>
  <i name="EDIFF">      0.00001000</i>
  <i name="ENCUT">    250.00000000</i>
  <i type="int" name="NBANDS">    12</i>
  <i type="int" name="ISMEAR">     1</i>
  <i name="SIGMA">      0.20000000</i>
 </incar>
 <kpoints>
  <generation param="listgenerated">
   <i name="divisions" type="int">      20 </i>
   <v>       0.50000000       0.00000000       0.50000000 </v>
   <v>       0.00000000       0.00000000       0.00000000 </v>
   <v>       0.50000000       0.50000000       0.50000000 </v>
   <v>       0.50000000       0.25000000       0.75000000 </v>
   <v>       0.37500000       0.37500000       0.75000000 </v>
   <v>       0.00000000       0.00000000       0.00000000 </v>
  </generation>
  <varray name="kpointlist" >
   <v>       0.50000000       0.00000000       0.50000000 </v>
   <v>       0.47368421       0.00000000       0.47368421 </v>
   <v>       0.44736842       0.00000000       0.44736842 </v>
   <v>       0.42105263       0.00000000       0.42105263 </v>
   <v>       0.39473684       0.00000000       0.39473684 </v>
   <v>       0.36842105       0.00000000       0.36842105 </v>
   <v>       0.34210526       0.00000000       0.34210526 </v>
   <v>       0.31578947       0.00000000       0.31578947 </v>
   <v>       0.28947368       0.00000000       0.28947368 </v>
   <v>       0.26315789       0.00000000       0.26315789 </v>
   <v>       0.23684211       0.00000000       0.23684211 </v>
   <v>       0.21052632       0.00000000       0.21052632 </v>
   <v>       0.18421053       0.00000000       0.18421053 </v>
   <v>       0.15789474       0.00000000       0.15789474 </v>
   <v>       0.13157895       0.00000000       0.13157895 </v>
   <v>       0.10526316       0.00000000       0.10526316 </v>
   <v>       0.07894737       0.00000000       0.07894737 </v>
   <v>       0.05263158       0.00000000       0.05263158 </v>
   <v>       0.02631579       0.00000000       0.02631579 </v>
   <v>       0.00000000       0.00000000       0.00000000 </v>
   <v>       0.00000000       0.00000000       0.00000000 </v>
   <v>       0.02631579       0.02631579       0.02631579 </v>
   <v>       0.05263158       0.05263158       0.05263158 </v>
   <v>       0.07894737       0.07894737       0.07894737 </v>
   <v>       0.10526316       0.10526316       0.10526316 </v>
   <v>       0.13157895       0.13157895       0.13157895 </v>
   <v>       0.15789474       0.15789474       0.15789474 </v>
   <v>       0.18421053       0.18421053       0.18421053 </v>
   <v>       0.21052632       0.21052632       0.21052632 </v>
   <v>       0.23684211       0.23684211       0.23684211 </v>
   <v>       0.26315789       0.26315789       0.26315789 </v>
   <v>       0.28947368       0.28947368       0.28947368 </v>
   <v>       0.31578947       0.31578947       0.31578947 </v>
   <v>       0.34210526       0.34210526       0.34210526 </v>
   <v>       0.36842105       0.36842105       0.36842105 </v>
   <v>       0.39473684       0.39473684       0.39473684 </v>
   <v>       0.42105263       0.42105263       0.42105263 </v>
   <v>       0.44736842       0.44736842       0.44736842 </v>
   <v>       0.47368421       0.47368421       0.47368421 </v>
   <v>       0.50000000       0.50000000       0.50000000 </v>
   <v>       0.50000000       0.50000000       0.50000000 </v>
   <v>       0.50000000       0.48684211       0.51315789 </v>
   <v>       0.50000000       0.47368421       0.52631579 </v>
   <v>       0.50000000       0.46052632       0.53947368 </v>
   <v>       0.50000000       0.44736842       0.55263158 </v>
   <v>       0.50000000       0.43421053       0.56578947 </v>
   <v>       0.50000000       0.42105263       0.57894737 </v>
   <v>       0.50000000       0.40789474       0.59210526 </v>
   <v>       0.50000000       0.39473684       0.60526316 </v>
   <v>       0.50000000       0.38157895       0.61842105 </v>
   <v>       0.50000000       0.36842105       0.63157895 </v>
   <v>       0.50000000       0.35526316       0.64473684 </v>
   <v>       0.50000000       0.34210526       0.65789474 </v>
   <v>       0.50000000       0.32894737       0.67105263 </v>
   <v>       0.50000000       0.31578947       0.68421053 </v>
   <v>       0.50000000       0.30263158       0.69736842 </v>
   <v>       0.50000000       0.28947368       0.71052632 </v>
   <v>       0.50000000       0.27631579       0.72368421 </v>
   <v>       0.50000000       0.26315789       0.73684211 </v>
   <v>       0.50000000       0.25000000       0.75000000 </v>
   <v>       0.50000000       0.25000000       0.75000000 </v>
   <v>       0.49342105       0.25657895       0.75000000 </v>
   <v>       0.48684211       0.26315789       0.75000000 </v>
   <v>       0.48026316       0.26973684       0.75000000 </v>
   <v>       0.47368421       0.27631579       0.75000000 </v>
   <v>       0.46710526       0.28289474       0.75000000 </v>
   <v>       0.46052632       0.28947368       0.75000000 </v>
   <v>       0.45394737       0.29605263       0.75000000 </v>
   <v>       0.44736842       0.30263158       0.75000000 </v>
   <v>       0.44078947       0.30921053       0.75000000 </v>
   <v>       0.43421053       0.31578947       0.75000000 </v>
   <v>       0.42763158       0.32236842       0.75000000 </v>
   <v>       0.42105263       0.32894737       0.75000000 </v>
   <v>       0.41447368       0.33552632       0.75000000 </v>
   <v>       0.40789474       0.34210526       0.75000000 </v>
   <v>       0.40131579       0.34868421       0.75000000 </v>
   <v>       0.39473684       0.35526316       0.75000000 </v>
   <v>       0.38815789       0.36184211       0.75000000 </v>
   <v>       0.38157895       0.36842105       0.75000000 </v>
   <v>       0.37500000       0.37500000       0.75000000 </v>
   <v>       0.37500000       0.37500000       0.75000000 </v>
   <v>       0.35526316       0.35526316       0.71052632 </v>
   <v>       0.33552632       0.33552632       0.67105263 </v>
   <v>       0.31578947       0.31578947       0.63157895 </v>
   <v>       0.29605263       0.29605263       0.59210526 </v>
   <v>       0.27631579       0.27631579       0.55263158 </v>
   <v>       0.25657895       0.25657895       0.51315789 </v>
   <v>       0.23684211       0.23684211       0.47368421 </v>
   <v>       0.21710526       0.21710526       0.43421053 </v>
   <v>       0.19736842       0.19736842       0.39473684 </v>
   <v>       0.17763158       0.17763158       0.35526316 </v>
   <v>       0.15789474       0.15789474       0.31578947 </v>
   <v>       0.13815789       0.13815789       0.27631579 </v>
   <v>       0.11842105       0.11842105       0.23684211 </v>
   <v>       0.09868421       0.09868421       0.19736842 </v>
   <v>       0.07894737       0.07894737       0.15789474 </v>
   <v>       0.05921053       0.05921053       0.11842105 </v>
   <v>       0.03947368       0.03947368       0.07894737 </v>
   <v>       0.01973684       0.01973684       0.03947368 </v>
   <v>       0.00000000       0.00000000       0.00000000 </v>
  </varray>
  <varray name="weights" >
   <v>       0.01000000 </v>
   <v>       0.01000000 </v>
   <v>       0.01000000 </v>
   <v>       0.01000000 </v>
   <v>       0.01000000 </v>
   <v>       0.01000000 </v>
   <v>       0.01000000 </v>
   <v>       0.01000000 </v>
   <v>       0.01000000 </v>
   <v>       0.01000000 </v>
   <v>       0.01000000 </v>
   <v>       0.01000000 </v>
   <v>       0.01000000 </v>
   <v>       0.01000000 </v>
   <v>       0.01000000 </v>
   <v>       0.01000000 </v>
   <v>       0.01000000 </v>
   <v>       0.01000000 </v>
   <v>       0.01000000 </v>
   <v>       0.01000000 </v>
   <v>       0.01000000 </v>
   <v>       0.01000000 </v>
   <v>       0.01000000 </v>
   <v>       0.01000000 </v>
   <v>       0.01000000 </v>
   <v>       0.01000000 </v>
   <v>       0.01000000 </v>
   <v>       0.01000000 </v>
   <v>       0.01000000 </v>
   <v>       0.01000000 </v>
   <v>       0.01000000 </v>
   <v>       0.01000000 </v>
   <v>       0.01000000 </v>
   <v>       0.01000000 </v>
   <v>       0.01000000 </v>
   <v>       0.01000000 </v>
   <v>       0.01000000 </v>
   <v>       0.01000000 </v>
   <v>       0.01000000 </v>
   <v>       0.01000000 </v>
   <v>       0.01000000 </v>
   <v>       0.01000000 </v>
   <v>       0.01000000 </v>
   <v>       0.01000000 </v>
   <v>       0.01000000 </v>
   <v>       0.01000000 </v>
   <v>       0.01000000 </v>
   <v>       0.01000000 </v>
   <v>       0.01000000 </v>
   <v>       0.01000000 </v>
   <v>       0.01000000 </v>
   <v>       0.01000000 </v>
   <v>       0.01000000 </v>
   <v>       0.01000000 </v>
   <v>       0.01000000 </v>
   <v>       0.01000000 </v>
   <v>       0.01000000 </v>
   <v>       0.01000000 </v>
   <v>       0.01000000 </v>
   <v>       0.01000000 </v>
   <v>       0.01000000 </v>
   <v>       0.01000000 </v>
   <v>       0.01000000 </v>
   <v>       0.01000000 </v>
   <v>       0.01000000 </v>
   <v>       0.01000000 </v>
   <v>       0.01000000 </v>
   <v>       0.01000000 </v>
   <v>       0.01000000 </v>
   <v>       0.01000000 </v>
   <v>       0.01000000 </v>
   <v>       0.01000000 </v>
   <v>       0.01000000 </v>
   <v>       0.01000000 </v>
   <v>       0.01000000 </v>
   <v>       0.01000000 </v>
   <v>       0.01000000 </v>
   <v>       0.01000000 </v>
   <v>       0.01000000 </v>
   <v>       0.01000000 </v>
   <v>       0.01000000 </v>
   <v>       0.01000000 </v>
   <v>       0.01000000 </v>
   <v>       0.01000000 </v>
   <v>       0.01000000 </v>
   <v>       0.01000000 </v>
   <v>       0.01000000 </v>
   <v>       0.01000000 </v>
   <v>       0.01000000 </v>
   <v>       0.01000000 </v>
   <v>       0.01000000 </v>
   <v>       0.01000000 </v>
   <v>       0.01000000 </v>
   <v>       0.01000000 </v>
   <v>       0.01000000 </v>
   <v>       0.01000000 </v>
   <v>       0.01000000 </v>
   <v>       0.01000000 </v>
   <v>       0.01000000 </v>
   <v>       0.01000000 </v>
  </varray>
 </kpoints>
 <parameters>
  <separator name="general" >
   <i type="string" name="SYSTEM">Al</i>
   <i type="logical" name="LCOMPAT"> F  </i>
  </separator>
  <separator name="electronic" >
   <i type="string" name="PREC">accura</i>
   <i name="ENMAX">    250.00000000</i>
   <i name="ENAUG">    291.05200000</i>
   <i name="EDIFF">      0.00001000</i>
   <i type="int" name="IALGO">    38</i>
   <i type="int" name="IWAVPR">    10</i>
   <i type="int" name="NBANDS">    12</i>
   <i name="NELECT">      3.00000000</i>
   <i type="int" name="TURBO">     0</i>
   <i type="int" name="IRESTART">     0</i>
   <i type="int" name="NREBOOT">     0</i>
   <i type="int" name="NMIN">     0</i>
   <i name="EREF">      0.00000000</i>
   <separator name="electronic smearing" >
    <i type="int" name="ISMEAR">     1</i>
    <i name="SIGMA">      0.20000000</i>
    <i name="KSPACING">      0.50000000</i>
    <i type="logical" name="KGAMMA"> T  </i>
   </separator>
   <separator name="electronic projectors" >
    <i type="logical" name="LREAL"> F  </i>
    <v name="ROPT">      0.00000000</v>
    <i type="int" name="LMAXPAW">  -100</i>
    <i type="int" name="LMAXMIX">     2</i>
    <i type="logical" name="NLSPLINE"> F  </i>
   </separator>
   <separator name="electronic startup" >
    <i type="int" name="ISTART">     0</i>
    <i type="int" name="ICHARG">    11</i>
    <i type="int" name="INIWAV">     1</i>
   </separator>
   <separator name="electronic spin" >
    <i type="int" name="ISPIN">     1</i>
    <i type="logical" name="LNONCOLLINEAR"> F  </i>
    <v name="MAGMOM">      1.00000000</v>
    <i name="NUPDOWN">     -1.00000000</i>
    <i type="logical" name="LSORBIT"> F  </i>
    <v name="SAXIS">      0.00000000      0.00000000      1.00000000</v>
    <i type="logical" name="LSPIRAL"> F  </i>
    <v name="QSPIRAL">      0.00000000      0.00000000      0.00000000</v>
    <i type="logical" name="LZEROZ"> F  </i>
   </separator>
   <separator name="electronic exchange-correlation" >
    <i type="logical" name="LASPH"> F  </i>
    <i type="logical" name="LMETAGGA"> F  </i>
   </separator>
   <separator name="electronic convergence" >
    <i type="int" name="NELM">    60</i>
    <i type="int" name="NELMDL">     0</i>
    <i type="int" name="NELMIN">     2</i>
    <i name="ENINI">    250.00000000</i>
    <separator name="electronic convergence detail" >
     <i type="logical" name="LDIAG"> T  </i>
     <i type="logical" name="LSUBROT"> T  </i>
     <i name="WEIMIN">      0.00000000</i>
     <i name="EBREAK">      0.00000021</i>
     <i name="DEPER">      0.30000000</i>
     <i type="int" name="NRMM">     4</i>
     <i name="TIME">      0.40000000</i>
    </separator>
   </separator>
   <separator name="electronic mixer" >
    <i name="AMIX">      0.40000000</i>
    <i name="BMIX">      1.00000000</i>
    <i name="AMIN">      0.10000000</i>
    <i name="AMIX_MAG">      1.60000000</i>
    <i name="BMIX_MAG">      1.00000000</i>
    <separator name="electronic mixer details" >
     <i type="int" name="IMIX">     4</i>
     <i type="int" name="MAXMIX">   -45</i>
     <i name="WC">    100.00000000</i>
     <i type="int" name="INIMIX">     1</i>
     <i type="int" name="MIXPRE">     1</i>
     <i type="int" name="MREMOVE">     5</i>
    </separator>
   </separator>
   <separator name="electronic dipolcorrection" >
    <i type="logical" name="LDIPOL"> F  </i>
    <i type="logical" name="LMONO"> F  </i>
    <i type="int" name="IDIPOL">     0</i>
    <i name="EPSILON">      1.00000000</i>
    <v name="DIPOL">   -100.00000000   -100.00000000   -100.00000000</v>
    <i name="EFIELD">      0.00000000</i>
   </separator>
  </separator>
  <separator name="grids" >
   <i type="int" name="NGX">    14</i>
   <i type="int" name="NGY">    14</i>
   <i type="int" name="NGZ">    14</i>
   <i type="int" name="NGXF">    28</i>
   <i type="int" name="NGYF">    28</i>
   <i type="int" name="NGZF">    28</i>
   <i type="logical" name="ADDGRID"> F  </i>
  </separator>
  <separator name="ionic" >
   <i type="int" name="NSW">     0</i>
   <i type="int" name="IBRION">    -1</i>
   <i type="int" name="ISIF">     2</i>
   <i name="PSTRESS">      0.00000000</i>
   <i name="EDIFFG">      0.00010000</i>
   <i type="int" name="NFREE">     1</i>
   <i name="POTIM">      0.50000000</i>
   <i name="SMASS">     -3.00000000</i>
   <i name="SCALEE">      1.00000000</i>
  </separator>
  <separator name="ionic md" >
   <i name="TEBEG">      0.00010000</i>
   <i name="TEEND">      0.00010000</i>
   <i type="int" name="NBLOCK">     1</i>
   <i type="int" name="KBLOCK">     1</i>
   <i type="int" name="NPACO">   256</i>
   <i name="APACO">     16.00000000</i>
  </separator>
  <separator name="symmetry" >
   <i type="int" name="ISYM">     2</i>
   <i name="SYMPREC">      0.00001000</i>
  </separator>
  <separator name="dos" >
   <i type="logical" name="LORBIT"> F  </i>
   <v name="RWIGS">     -1.00000000</v>
   <i type="int" name="NEDOS">   301</i>
   <i name="EMIN">     10.00000000</i>
   <i name="EMAX">    -10.00000000</i>
   <i name="EFERMI">      0.00000000</i>
  </separator>
  <separator name="writing" >
   <i type="int" name="NWRITE">     2</i>
   <i type="logical" name="LWAVE"> T  </i>
   <i type="logical" name="LCHARG"> T  </i>
   <i type="logical" name="LPARD"> F  </i>
   <i type="logical" name="LVTOT"> F  </i>
   <i type="logical" name="LVHAR"> F  </i>
   <i type="logical" name="LELF"> F  </i>
   <i type="logical" name="LOPTICS"> F  </i>
   <v name="STM">      0.00000000      0.00000000      0.00000000      0.00000000      0.00000000      0.00000000      0.00000000</v>
  </separator>
  <separator name="performance" >
   <i type="int" name="NPAR">     1</i>
   <i type="int" name="NSIM">     4</i>
   <i type="int" name="NBLK">    -1</i>
   <i type="logical" name="LPLANE"> T  </i>
   <i type="logical" name="LSCALAPACK"> F  </i>
   <i type="logical" name="LSCAAWARE"> F  </i>
   <i type="logical" name="LSCALU"> F  </i>
   <i type="logical" name="LASYNC"> F  </i>
   <i type="logical" name="LORBITALREAL"> F  </i>
  </separator>
  <separator name="miscellaneous" >
   <i type="int" name="IDIOT">     3</i>
   <i type="logical" name="LMUSIC"> F  </i>
   <v name="POMASS">     26.98200000</v>
   <v name="DARWINR">      0.00000000</v>
   <v name="DARWINV">      1.00000000</v>
   <i type="logical" name="LCORR"> T  </i>
  </separator>
  <i type="logical" name="GGA_COMPAT"> T  </i>
  <i type="logical" name="LBERRY"> F  </i>
  <i type="int" name="ICORELEVEL">     0</i>
  <i type="logical" name="LDAU"> F  </i>
  <i type="int" name="I_CONSTRAINED_M">     0</i>
  <separator name="electronic exchange-correlation" >
   <i type="string" name="GGA">--</i>
   <i type="int" name="VOSKOWN">     0</i>
   <i type="logical" name="LHFCALC"> F  </i>
   <i type="string" name="PRECFOCK"></i>
   <i type="logical" name="LSYMGRAD"> F  </i>
   <i type="logical" name="LHFONE"> F  </i>
   <i type="logical" name="LRHFCALC"> F  </i>
   <i type="logical" name="LTHOMAS"> F  </i>
   <i type="logical" name="LMODELHF"> F  </i>
   <i name="ENCUT4O">     -1.00000000</i>
   <i type="int" name="EXXOEP">     0</i>
   <i type="int" name="FOURORBIT">     0</i>
   <i name="AEXX">      0.00000000</i>
   <i name="HFALPHA">      0.00000000</i>
   <i name="MCALPHA">      0.00000000</i>
   <i name="ALDAX">      1.00000000</i>
   <i name="AGGAX">      1.00000000</i>
   <i name="ALDAC">      1.00000000</i>
   <i name="AGGAC">      1.00000000</i>
   <i type="int" name="NKREDX">     1</i>
   <i type="int" name="NKREDY">     1</i>
   <i type="int" name="NKREDZ">     1</i>
   <i type="logical" name="SHIFTRED"> F  </i>
   <i type="logical" name="ODDONLY"> F  </i>
   <i type="logical" name="EVENONLY"> F  </i>
   <i type="int" name="LMAXFOCK">     0</i>
   <i type="int" name="NMAXFOCKAE">     0</i>
   <i type="logical" name="LFOCKAEDFT"> F  </i>
   <i name="HFSCREEN">      0.00000000</i>
   <i name="HFSCREENC">      0.00000000</i>
   <i type="int" name="NBANDSGWLOW">     0</i>
  </separator>
  <separator name="vdW DFT" >
   <i type="logical" name="LUSE_VDW"> F  </i>
   <i name="Zab_VDW">     -0.84910000</i>
   <i name="PARAM1">      0.12340000</i>
   <i name="PARAM2">      1.00000000</i>
   <i name="PARAM3">      0.00000000</i>
  </separator>
  <separator name="model GW" >
   <i type="int" name="MODEL_GW">     0</i>
   <i name="MODEL_EPS0">      9.42112266</i>
   <i name="MODEL_ALPHA">      1.00000000</i>
  </separator>
  <separator name="linear response parameters" >
   <i type="logical" name="LEPSILON"> F  </i>
   <i type="logical" name="LRPA"> F  </i>
   <i type="logical" name="LNABLA"> F  </i>
   <i type="logical" name="LVEL"> F  </i>
   <i type="int" name="KINTER">     0</i>
   <i name="CSHIFT">      0.10000000</i>
   <i name="OMEGAMAX">     -1.00000000</i>
   <i name="DEG_THRESHOLD">      0.00200000</i>
  </separator>
  <separator name="orbital magnetization" >
   <i type="logical" name="NUCIND"> F  </i>
   <v name="MAGPOS">      0.00000000      0.00000000      0.00000000</v>
   <i type="logical" name="LNICSALL"> T  </i>
   <i type="logical" name="ORBITALMAG"> F  </i>
   <i type="logical" name="LMAGBLOCH"> F  </i>
   <i type="logical" name="LCHIMAG"> F  </i>
   <i type="logical" name="LGAUGE"> T  </i>
   <i type="int" name="MAGATOM">     0</i>
   <v name="MAGDIPOL">      0.00000000      0.00000000      0.00000000</v>
   <v name="AVECCONST">      0.00000000      0.00000000      0.00000000</v>
  </separator>
  <separator name="response functions" >
   <i type="logical" name="LADDER"> F  </i>
   <i type="logical" name="LFXC"> F  </i>
   <i type="logical" name="LHARTREE"> T  </i>
   <i type="int" name="IBSE">     0</i>
   <i type="logical" name="LTCTE"> F  </i>
   <i type="logical" name="LTETE"> F  </i>
   <i type="logical" name="LTRIPLET"> F  </i>
   <i type="logical" name="LFXCEPS"> F  </i>
   <i type="logical" name="L2ORDER"> F  </i>
   <i type="logical" name="LUSEW"> F  </i>
   <i name="ENCUTGW">     -2.00000000</i>
   <i name="ENCUTGWSOFT">     -2.00000000</i>
   <i name="ENCUTLF">     -1.00000000</i>
   <i type="int" name="LMAXMP2">    -1</i>
   <i name="SCISSOR">      0.00000000</i>
   <i type="int" name="NOMEGA">     0</i>
   <i type="int" name="NOMEGAR">     0</i>
   <i type="int" name="NBANDSGW">    -1</i>
   <i type="int" name="NBANDSO">    -1</i>
   <i type="int" name="NBANDSV">    -1</i>
   <i type="int" name="NELM">     1</i>
   <i type="int" name="DIM">     3</i>
   <i type="int" name="ANTIRES">     0</i>
   <i name="OMEGAMAX">    -30.00000000</i>
   <i name="OMEGATL">   -200.00000000</i>
   <i type="int" name="OMEGAGRID">     0</i>
   <i name="CSHIFT">     -0.10000000</i>
   <i type="logical" name="SELFENERGY"> F  </i>
   <i type="logical" name="LSPECTRAL"> F  </i>
   <i type="logical" name="ODDONLYGW"> F  </i>
   <i type="logical" name="EVENONLYGW"> F  </i>
   <i type="int" name="NKREDLFX">     1</i>
   <i type="int" name="NKREDLFY">     1</i>
   <i type="int" name="NKREDLFZ">     1</i>
   <i type="int" name="MAXMEM">  1800</i>
   <i type="int" name="TELESCOPE">     0</i>
  </separator>
 </parameters>
 <atominfo>
  <atoms>       1 </atoms>
  <types>       1 </types>
  <array name="atoms" >
   <dimension dim="1">ion</dimension>
   <field type="string">element</field>
   <field type="int">atomtype</field>
   <set>
    <rc><c>Al</c><c>   1</c></rc>
   </set>
  </array>
  <array name="atomtypes" >
   <dimension dim="1">type</dimension>
   <field type="int">atomspertype</field>
   <field type="string">element</field>
   <field>mass</field>
   <field>valence</field>
   <field type="string">pseudopotential</field>
   <set>
    <rc><c>   1</c><c>Al</c><c>     26.98200000</c><c>      3.00000000</c><c> PAW_PBE Al 04Jan2001                   </c></rc>
   </set>
  </array>
 </atominfo>
 <structure name="initialpos" >
  <crystal>
   <varray name="basis" >
    <v>       0.00000000       1.98750000       1.98750000 </v>
    <v>       1.98750000       0.00000000       1.98750000 </v>
    <v>       1.98750000       1.98750000       0.00000000 </v>
   </varray>
   <i name="volume">     15.70187109 </i>
   <varray name="rec_basis" >
    <v>      -0.25157233       0.25157233       0.25157233 </v>
    <v>       0.25157233      -0.25157233       0.25157233 </v>
    <v>       0.25157233       0.25157233      -0.25157233 </v>
   </varray>
  </crystal>
  <varray name="positions" >
   <v>       0.00000000       0.00000000       0.00000000 </v>
  </varray>
 </structure>
 <calculation>
  <scstep>
   <time name="dav">   48.85    1.58</time>
   <time name="total">   50.01    1.62</time>
   <energy>
    <i name="alphaZ">     -0.21391158 </i>
    <i name="ewald">    -74.74079779 </i>
    <i name="hartreedc">     -0.11606305 </i>
    <i name="XCdc">    -26.03027837 </i>
    <i name="pawpsdc">     35.98065828 </i>
    <i name="pawaedc">     -4.05046090 </i>
    <i name="eentropy">      0.00018389 </i>
    <i name="bandstr">     13.47335045 </i>
    <i name="atom">     53.53616173 </i>
    <i name="e_fr_energy">     -2.16115734 </i>
    <i name="e_wo_entrp">     -2.16134123 </i>
    <i name="e_0_energy">     -2.16121864 </i>
   </energy>
  </scstep>
  <scstep>
   <time name="dav">   57.46    1.86</time>
   <time name="total">   57.82    1.87</time>
   <energy>
    <i name="e_fr_energy">     -4.32565893 </i>
    <i name="e_wo_entrp">     -4.32585592 </i>
    <i name="e_0_energy">     -4.32572459 </i>
   </energy>
  </scstep>
  <scstep>
   <time name="dav">   55.52    1.80</time>
   <time name="total">   55.89    1.82</time>
   <energy>
    <i name="e_fr_energy">     -4.34884389 </i>
    <i name="e_wo_entrp">     -4.34912761 </i>
    <i name="e_0_energy">     -4.34893846 </i>
   </energy>
  </scstep>
  <scstep>
   <time name="dav">   54.31    1.76</time>
   <time name="total">   54.69    1.77</time>
   <energy>
    <i name="e_fr_energy">     -4.34888262 </i>
    <i name="e_wo_entrp">     -4.34916658 </i>
    <i name="e_0_energy">     -4.34897728 </i>
   </energy>
  </scstep>
  <scstep>
   <time name="dav">   55.94    1.81</time>
   <time name="total">   56.26    1.82</time>
   <energy>
    <i name="e_fr_energy">     -4.34888279 </i>
    <i name="e_wo_entrp">     -4.34916675 </i>
    <i name="e_0_energy">     -4.34897744 </i>
   </energy>
  </scstep>
  <scstep>
   <time name="dav">   40.37    1.31</time>
   <time name="total">   40.72    1.32</time>
   <energy>
    <i name="alphaZ">     -0.21391158 </i>
    <i name="ewald">    -74.74079779 </i>
    <i name="hartreedc">     -0.11606305 </i>
    <i name="XCdc">    -26.03027837 </i>
    <i name="pawpsdc">     35.98065828 </i>
    <i name="pawaedc">     -4.05046090 </i>
    <i name="eentropy">      0.00028396 </i>
    <i name="bandstr">     11.28552492 </i>
    <i name="atom">     53.53616173 </i>
    <i name="e_fr_energy">     -4.34888279 </i>
    <i name="e_wo_entrp">     -4.34916675 </i>
    <i name="e_0_energy">     -4.34897745 </i>
   </energy>
  </scstep>
  <structure>
   <crystal>
    <varray name="basis" >
     <v>       0.00000000       1.98750000       1.98750000 </v>
     <v>       1.98750000       0.00000000       1.98750000 </v>
     <v>       1.98750000       1.98750000       0.00000000 </v>
    </varray>
    <i name="volume">     15.70187109 </i>
    <varray name="rec_basis" >
     <v>      -0.25157233       0.25157233       0.25157233 </v>
     <v>       0.25157233      -0.25157233       0.25157233 </v>
     <v>       0.25157233       0.25157233      -0.25157233 </v>
    </varray>
   </crystal>
   <varray name="positions" >
    <v>       0.00000000       0.00000000       0.00000000 </v>
   </varray>
  </structure>
  <varray name="forces" >
   <v>       0.00000000       0.00000000       0.00000000 </v>
  </varray>
  <varray name="stress" >
   <v>     -59.32248612       0.00000000       0.00000000 </v>
   <v>       0.00000000     -59.32248612       0.00000000 </v>
   <v>       0.00000000       0.00000000     -59.32248612 </v>
  </varray>
  <energy>
   <i name="e_fr_energy">     -4.34888279 </i>
   <i name="e_wo_entrp">     -4.34897745 </i>
   <i name="e_0_energy">      0.00028396 </i>
  </energy>
  <time name="totalsc">  326.71   10.58</time>
  <eigenvalues>
   <array>
    <dimension dim="1">band</dimension>
    <dimension dim="2">kpoint</dimension>
    <dimension dim="3">spin</dimension>
    <field>eigene</field>
    <field>occ</field>
    <set>
     <set comment="spin 1">
      <set comment="kpoint 1">
       <r>    5.4880    1.0000 </r>
       <r>    6.9239    1.0000 </r>
       <r>   13.8318    0.0000 </r>
       <r>   14.3641    0.0000 </r>
       <r>   14.3641    0.0000 </r>
       <r>   18.0998    0.0000 </r>
       <r>   34.9115    0.0000 </r>
       <r>   36.5061    0.0000 </r>
       <r>   36.5062    0.0000 </r>
       <r>   42.0762    0.0000 </r>
       <r>   43.1910    0.0000 </r>
       <r>   43.1967    0.0000 </r>
      </set>
      <set comment="kpoint 2">
       <r>    5.0481    1.0000 </r>
       <r>    7.4105    1.0125 </r>
       <r>   13.8585    0.0000 </r>
       <r>   14.3860    0.0000 </r>
       <r>   14.3861    0.0000 </r>
       <r>   18.1251    0.0000 </r>
       <r>   34.8147    0.0000 </r>
       <r>   36.4776    0.0000 </r>
       <r>   36.4776    0.0000 </r>
       <r>   42.2441    0.0000 </r>
       <r>   43.0882    0.0000 </r>
       <r>   43.2551    0.0000 </r>
      </set>
      <set comment="kpoint 3">
       <r>    4.2895    1.0000 </r>
       <r>    8.3029   -0.0007 </r>
       <r>   13.9354    0.0000 </r>
       <r>   14.4517    0.0000 </r>
       <r>   14.4517    0.0000 </r>
       <r>   18.1966    0.0000 </r>
       <r>   34.5137    0.0000 </r>
       <r>   36.2145    0.0000 </r>
       <r>   36.2145    0.0000 </r>
       <r>   42.2862    0.0000 </r>
       <r>   42.7088    0.0000 </r>
       <r>   43.3567    0.0000 </r>
      </set>
      <set comment="kpoint 4">
       <r>    3.5087    1.0000 </r>
       <r>    9.3080    0.0000 </r>
       <r>   14.0636    0.0000 </r>
       <r>   14.5612    0.0000 </r>
       <r>   14.5612    0.0000 </r>
       <r>   18.3164    0.0000 </r>
       <r>   34.0813    0.0000 </r>
       <r>   35.8191    0.0000 </r>
       <r>   35.8191    0.0000 </r>
       <r>   41.4224    0.0000 </r>
       <r>   43.2532    0.0000 </r>
       <r>   43.3492    0.0000 </r>
      </set>
      <set comment="kpoint 5">
       <r>    2.7536    1.0000 </r>
       <r>   10.3752    0.0000 </r>
       <r>   14.2429    0.0000 </r>
       <r>   14.7147    0.0000 </r>
       <r>   14.7148    0.0000 </r>
       <r>   18.4808    0.0000 </r>
       <r>   33.5899    0.0000 </r>
       <r>   35.3486    0.0000 </r>
       <r>   35.3486    0.0000 </r>
       <r>   40.5343    0.0000 </r>
       <r>   42.6490    0.0000 </r>
       <r>   42.6492    0.0000 </r>
      </set>
      <set comment="kpoint 6">
       <r>    2.0369    1.0000 </r>
       <r>   11.4930    0.0000 </r>
       <r>   14.4733    0.0000 </r>
       <r>   14.9122    0.0000 </r>
       <r>   14.9123    0.0000 </r>
       <r>   18.6898    0.0000 </r>
       <r>   33.0488    0.0000 </r>
       <r>   34.7777    0.0000 </r>
       <r>   34.7778    0.0000 </r>
       <r>   39.6459    0.0000 </r>
       <r>   41.6277    0.0000 </r>
       <r>   41.6277    0.0000 </r>
      </set>
      <set comment="kpoint 7">
       <r>    1.3623    1.0000 </r>
       <r>   12.6529    0.0000 </r>
       <r>   14.7544    0.0000 </r>
       <r>   15.1531    0.0000 </r>
       <r>   15.1531    0.0000 </r>
       <r>   18.9399    0.0000 </r>
       <r>   32.5021    0.0000 </r>
       <r>   34.1294    0.0000 </r>
       <r>   34.1294    0.0000 </r>
       <r>   38.7378    0.0000 </r>
       <r>   40.4824    0.0000 </r>
       <r>   40.4898    0.0000 </r>
      </set>
      <set comment="kpoint 8">
       <r>    0.7342    1.0000 </r>
       <r>   13.8579    0.0000 </r>
       <r>   15.0860    0.0000 </r>
       <r>   15.4385    0.0000 </r>
       <r>   15.4385    0.0000 </r>
       <r>   19.2323    0.0000 </r>
       <r>   31.9711    0.0000 </r>
       <r>   33.4350    0.0000 </r>
       <r>   33.4350    0.0000 </r>
       <r>   37.8791    0.0000 </r>
       <r>   39.2566    0.0000 </r>
       <r>   39.3696    0.0000 </r>
      </set>
      <set comment="kpoint 9">
       <r>    0.1530    1.0000 </r>
       <r>   15.1033    0.0000 </r>
       <r>   15.4677    0.0000 </r>
       <r>   15.7679    0.0000 </r>
       <r>   15.7679    0.0000 </r>
       <r>   19.5621    0.0000 </r>
       <r>   31.4650    0.0000 </r>
       <r>   32.6767    0.0000 </r>
       <r>   32.6768    0.0000 </r>
       <r>   37.0449    0.0000 </r>
       <r>   37.6864    0.0000 </r>
       <r>   38.3456    0.0000 </r>
      </set>
      <set comment="kpoint 10">
       <r>   -0.3802    1.0000 </r>
       <r>   15.8988    0.0000 </r>
       <r>   16.1412    0.0000 </r>
       <r>   16.1412    0.0000 </r>
       <r>   16.3867    0.0000 </r>
       <r>   19.9256    0.0000 </r>
       <r>   30.9913    0.0000 </r>
       <r>   31.8528    0.0000 </r>
       <r>   31.8528    0.0000 </r>
       <r>   36.1698    0.0000 </r>
       <r>   36.2384    0.0000 </r>
       <r>   37.4398    0.0000 </r>
      </set>
      <set comment="kpoint 11">
       <r>   -0.8648    1.0000 </r>
       <r>   16.3756    0.0000 </r>
       <r>   16.5553    0.0000 </r>
       <r>   16.5553    0.0000 </r>
       <r>   17.7108    0.0000 </r>
       <r>   20.3206    0.0000 </r>
       <r>   30.6030    0.0000 </r>
       <r>   30.9451    0.0000 </r>
       <r>   30.9451    0.0000 </r>
       <r>   34.6861    0.0000 </r>
       <r>   35.4763    0.0000 </r>
       <r>   36.6666    0.0000 </r>
      </set>
      <set comment="kpoint 12">
       <r>   -1.2999    1.0000 </r>
       <r>   16.9022    0.0000 </r>
       <r>   17.0152    0.0000 </r>
       <r>   17.0153    0.0000 </r>
       <r>   19.0623    0.0000 </r>
       <r>   20.7371    0.0000 </r>
       <r>   30.0147    0.0000 </r>
       <r>   30.0147    0.0000 </r>
       <r>   30.2047    0.0000 </r>
       <r>   33.2794    0.0000 </r>
       <r>   34.7319    0.0000 </r>
       <r>   36.0145    0.0000 </r>
      </set>
      <set comment="kpoint 13">
       <r>   -1.6849    1.0000 </r>
       <r>   17.4742    0.0000 </r>
       <r>   17.5181    0.0000 </r>
       <r>   17.5181    0.0000 </r>
       <r>   20.4351    0.0000 </r>
       <r>   21.1765    0.0000 </r>
       <r>   29.0525    0.0000 </r>
       <r>   29.0525    0.0000 </r>
       <r>   29.8496    0.0000 </r>
       <r>   31.9304    0.0000 </r>
       <r>   34.0259    0.0000 </r>
       <r>   35.4761    0.0000 </r>
      </set>
      <set comment="kpoint 14">
       <r>   -2.0196    1.0000 </r>
       <r>   18.0629    0.0000 </r>
       <r>   18.0629    0.0000 </r>
       <r>   18.0884    0.0000 </r>
       <r>   21.5470    0.0000 </r>
       <r>   21.9048    0.0000 </r>
       <r>   28.0771    0.0000 </r>
       <r>   28.0771    0.0000 </r>
       <r>   29.5394    0.0000 </r>
       <r>   30.6425    0.0000 </r>
       <r>   33.3657    0.0000 </r>
       <r>   35.0373    0.0000 </r>
      </set>
      <set comment="kpoint 15">
       <r>   -2.3037    1.0000 </r>
       <r>   18.6444    0.0000 </r>
       <r>   18.6444    0.0000 </r>
       <r>   18.7386    0.0000 </r>
       <r>   22.0062    0.0000 </r>
       <r>   23.2848    0.0000 </r>
       <r>   27.0954    0.0000 </r>
       <r>   27.0954    0.0000 </r>
       <r>   29.2754    0.0000 </r>
       <r>   29.4170    0.0000 </r>
       <r>   32.7547    0.0000 </r>
       <r>   34.6843    0.0000 </r>
      </set>
      <set comment="kpoint 16">
       <r>   -2.5363    1.0000 </r>
       <r>   19.2654    0.0000 </r>
       <r>   19.2654    0.0000 </r>
       <r>   19.4164    0.0000 </r>
       <r>   22.4127    0.0000 </r>
       <r>   24.6924    0.0000 </r>
       <r>   26.1448    0.0000 </r>
       <r>   26.1448    0.0000 </r>
       <r>   28.2723    0.0000 </r>
       <r>   29.0585    0.0000 </r>
       <r>   32.2278    0.0000 </r>
       <r>   34.4081    0.0000 </r>
      </set>
      <set comment="kpoint 17">
       <r>   -2.7176    1.0000 </r>
       <r>   19.9157    0.0000 </r>
       <r>   19.9157    0.0000 </r>
       <r>   20.1020    0.0000 </r>
       <r>   22.7705    0.0000 </r>
       <r>   25.2302    0.0000 </r>
       <r>   25.2302    0.0000 </r>
       <r>   26.0612    0.0000 </r>
       <r>   27.2237    0.0000 </r>
       <r>   28.8892    0.0000 </r>
       <r>   31.8056    0.0000 </r>
       <r>   34.2002    0.0000 </r>
      </set>
      <set comment="kpoint 18">
       <r>   -2.8471    1.0000 </r>
       <r>   20.5835    0.0000 </r>
       <r>   20.5835    0.0000 </r>
       <r>   20.7658    0.0000 </r>
       <r>   23.0560    0.0000 </r>
       <r>   24.3805    0.0000 </r>
       <r>   24.3805    0.0000 </r>
       <r>   26.3131    0.0000 </r>
       <r>   27.3096    0.0000 </r>
       <r>   28.7679    0.0000 </r>
       <r>   31.5377    0.0000 </r>
       <r>   34.0560    0.0000 </r>
      </set>
      <set comment="kpoint 19">
       <r>   -2.9249    1.0000 </r>
       <r>   21.1944    0.0000 </r>
       <r>   21.1945    0.0000 </r>
       <r>   21.2876    0.0000 </r>
       <r>   23.2430    0.0000 </r>
       <r>   23.6551    0.0000 </r>
       <r>   23.6551    0.0000 </r>
       <r>   25.6358    0.0000 </r>
       <r>   28.3036    0.0000 </r>
       <r>   28.6951    0.0000 </r>
       <r>   31.4848    0.0000 </r>
       <r>   33.9705    0.0000 </r>
      </set>
      <set comment="kpoint 20">
       <r>   -2.9508    1.0000 </r>
       <r>   21.5023    0.0000 </r>
       <r>   21.5023    0.0000 </r>
       <r>   21.5023    0.0000 </r>
       <r>   23.3078    0.0000 </r>
       <r>   23.3078    0.0000 </r>
       <r>   23.3079    0.0000 </r>
       <r>   25.3692    0.0000 </r>
       <r>   28.6708    0.0000 </r>
       <r>   28.6708    0.0000 </r>
       <r>   31.5495    0.0000 </r>
       <r>   33.9421    0.0000 </r>
      </set>
      <set comment="kpoint 21">
       <r>   -2.9508    1.0000 </r>
       <r>   21.5023    0.0000 </r>
       <r>   21.5023    0.0000 </r>
       <r>   21.5023    0.0000 </r>
       <r>   23.3078    0.0000 </r>
       <r>   23.3078    0.0000 </r>
       <r>   23.3079    0.0000 </r>
       <r>   25.3692    0.0000 </r>
       <r>   28.6708    0.0000 </r>
       <r>   28.6708    0.0000 </r>
       <r>   31.5495    0.0000 </r>
       <r>   33.9421    0.0000 </r>
      </set>
      <set comment="kpoint 22">
       <r>   -2.9313    1.0000 </r>
       <r>   21.0335    0.0000 </r>
       <r>   21.4276    0.0000 </r>
       <r>   21.4276    0.0000 </r>
       <r>   23.4139    0.0000 </r>
       <r>   23.4139    0.0000 </r>
       <r>   23.5468    0.0000 </r>
       <r>   25.5853    0.0000 </r>
       <r>   28.5415    0.0000 </r>
       <r>   28.5415    0.0000 </r>
       <r>   31.4644    0.0000 </r>
       <r>   34.0591    0.0000 </r>
      </set>
      <set comment="kpoint 23">
       <r>   -2.8730    1.0000 </r>
       <r>   20.0897    0.0000 </r>
       <r>   21.2435    0.0000 </r>
       <r>   21.2435    0.0000 </r>
       <r>   23.6913    0.0000 </r>
       <r>   23.6913    0.0000 </r>
       <r>   23.7992    0.0000 </r>
       <r>   26.2277    0.0000 </r>
       <r>   28.1960    0.0000 </r>
       <r>   28.1960    0.0000 </r>
       <r>   31.2347    0.0000 </r>
       <r>   34.3867    0.0000 </r>
      </set>
      <set comment="kpoint 24">
       <r>   -2.7759    1.0000 </r>
       <r>   19.0272    0.0000 </r>
       <r>   21.0097    0.0000 </r>
       <r>   21.0097    0.0000 </r>
       <r>   23.8697    0.0000 </r>
       <r>   24.0717    0.0000 </r>
       <r>   24.0717    0.0000 </r>
       <r>   27.1506    0.0000 </r>
       <r>   27.6722    0.0000 </r>
       <r>   27.6722    0.0000 </r>
       <r>   30.9068    0.0000 </r>
       <r>   34.8829    0.0000 </r>
      </set>
      <set comment="kpoint 25">
       <r>   -2.6399    1.0000 </r>
       <r>   17.9323    0.0000 </r>
       <r>   20.7722    0.0000 </r>
       <r>   20.7722    0.0000 </r>
       <r>   23.8398    0.0000 </r>
       <r>   24.5121    0.0000 </r>
       <r>   24.5121    0.0000 </r>
       <r>   27.1425    0.0000 </r>
       <r>   27.1425    0.0000 </r>
       <r>   28.1901    0.0000 </r>
       <r>   30.5149    0.0000 </r>
       <r>   35.5313    0.0000 </r>
      </set>
      <set comment="kpoint 26">
       <r>   -2.4652    1.0000 </r>
       <r>   16.8330    0.0000 </r>
       <r>   20.5458    0.0000 </r>
       <r>   20.5458    0.0000 </r>
       <r>   23.7641    0.0000 </r>
       <r>   24.9612    0.0000 </r>
       <r>   24.9612    0.0000 </r>
       <r>   26.6305    0.0000 </r>
       <r>   26.6305    0.0000 </r>
       <r>   29.2616    0.0000 </r>
       <r>   30.0828    0.0000 </r>
       <r>   36.3165    0.0000 </r>
      </set>
      <set comment="kpoint 27">
       <r>   -2.2519    1.0000 </r>
       <r>   15.7445    0.0000 </r>
       <r>   20.3319    0.0000 </r>
       <r>   20.3319    0.0000 </r>
       <r>   23.6684    0.0000 </r>
       <r>   25.2439    0.0000 </r>
       <r>   25.2439    0.0000 </r>
       <r>   26.3110    0.0000 </r>
       <r>   26.3110    0.0000 </r>
       <r>   29.6038    0.0000 </r>
       <r>   30.3599    0.0000 </r>
       <r>   37.2366    0.0000 </r>
      </set>
      <set comment="kpoint 28">
       <r>   -2.0004    1.0000 </r>
       <r>   14.6703    0.0000 </r>
       <r>   20.1512    0.0000 </r>
       <r>   20.1512    0.0000 </r>
       <r>   23.5717    0.0000 </r>
       <r>   25.0361    0.0000 </r>
       <r>   25.0361    0.0000 </r>
       <r>   26.5465    0.0000 </r>
       <r>   26.5465    0.0000 </r>
       <r>   29.1262    0.0000 </r>
       <r>   31.4139    0.0000 </r>
       <r>   38.2761    0.0000 </r>
      </set>
      <set comment="kpoint 29">
       <r>   -1.7107    1.0000 </r>
       <r>   13.6173    0.0000 </r>
       <r>   19.9982    0.0000 </r>
       <r>   19.9982    0.0000 </r>
       <r>   23.4827    0.0000 </r>
       <r>   24.5713    0.0000 </r>
       <r>   24.5713    0.0000 </r>
       <r>   27.0936    0.0000 </r>
       <r>   27.0936    0.0000 </r>
       <r>   28.6378    0.0000 </r>
       <r>   32.4500    0.0000 </r>
       <r>   39.4258    0.0000 </r>
      </set>
      <set comment="kpoint 30">
       <r>   -1.3833    1.0000 </r>
       <r>   12.5884    0.0000 </r>
       <r>   19.8744    0.0000 </r>
       <r>   19.8744    0.0000 </r>
       <r>   23.4088    0.0000 </r>
       <r>   24.0680    0.0000 </r>
       <r>   24.0680    0.0000 </r>
       <r>   27.7362    0.0000 </r>
       <r>   27.7362    0.0000 </r>
       <r>   28.1494    0.0000 </r>
       <r>   33.4655    0.0000 </r>
       <r>   40.6756    0.0000 </r>
      </set>
      <set comment="kpoint 31">
       <r>   -1.0180    1.0000 </r>
       <r>   11.5858    0.0000 </r>
       <r>   19.7860    0.0000 </r>
       <r>   19.7860    0.0000 </r>
       <r>   23.3552    0.0000 </r>
       <r>   23.5756    0.0000 </r>
       <r>   23.5756    0.0000 </r>
       <r>   27.6680    0.0000 </r>
       <r>   28.4523    0.0000 </r>
       <r>   28.4523    0.0000 </r>
       <r>   34.4677    0.0000 </r>
       <r>   41.9949    0.0000 </r>
      </set>
      <set comment="kpoint 32">
       <r>   -0.6156    1.0000 </r>
       <r>   10.6109    0.0000 </r>
       <r>   19.7228    0.0000 </r>
       <r>   19.7228    0.0000 </r>
       <r>   23.1011    0.0000 </r>
       <r>   23.1011    0.0000 </r>
       <r>   23.3261    0.0000 </r>
       <r>   27.1990    0.0000 </r>
       <r>   29.1819    0.0000 </r>
       <r>   29.1819    0.0000 </r>
       <r>   35.4489    0.0000 </r>
       <r>   43.3225    0.0000 </r>
      </set>
      <set comment="kpoint 33">
       <r>   -0.1763    1.0000 </r>
       <r>    9.6651    0.0000 </r>
       <r>   19.6909    0.0000 </r>
       <r>   19.6909    0.0000 </r>
       <r>   22.6531    0.0000 </r>
       <r>   22.6531    0.0000 </r>
       <r>   23.3242    0.0000 </r>
       <r>   26.7472    0.0000 </r>
       <r>   29.9389    0.0000 </r>
       <r>   29.9389    0.0000 </r>
       <r>   36.4151    0.0000 </r>
       <r>   44.1206    0.0000 </r>
      </set>
      <set comment="kpoint 34">
       <r>    0.2997    1.0000 </r>
       <r>    8.7494    0.0000 </r>
       <r>   19.6908    0.0000 </r>
       <r>   19.6908    0.0000 </r>
       <r>   22.2343    0.0000 </r>
       <r>   22.2343    0.0000 </r>
       <r>   23.3516    0.0000 </r>
       <r>   26.3165    0.0000 </r>
       <r>   30.7152    0.0000 </r>
       <r>   30.7152    0.0000 </r>
       <r>   37.3636    0.0000 </r>
       <r>   44.2627    0.0000 </r>
      </set>
      <set comment="kpoint 35">
       <r>    0.8117    1.0000 </r>
       <r>    7.8645    0.1775 </r>
       <r>   19.7226    0.0000 </r>
       <r>   19.7226    0.0000 </r>
       <r>   21.8463    0.0000 </r>
       <r>   21.8463    0.0000 </r>
       <r>   23.4093    0.0000 </r>
       <r>   25.9106    0.0000 </r>
       <r>   31.4998    0.0000 </r>
       <r>   31.4998    0.0000 </r>
       <r>   38.2869    0.0000 </r>
       <r>   43.6844    0.0000 </r>
      </set>
      <set comment="kpoint 36">
       <r>    1.3594    1.0000 </r>
       <r>    7.0110    1.0000 </r>
       <r>   19.7861    0.0000 </r>
       <r>   19.7861    0.0000 </r>
       <r>   21.4903    0.0000 </r>
       <r>   21.4903    0.0000 </r>
       <r>   23.4974    0.0000 </r>
       <r>   25.5317    0.0000 </r>
       <r>   32.2619    0.0000 </r>
       <r>   32.2619    0.0000 </r>
       <r>   39.1689    0.0000 </r>
       <r>   42.7954    0.0000 </r>
      </set>
      <set comment="kpoint 37">
       <r>    1.9421    1.0000 </r>
       <r>    6.1906    1.0000 </r>
       <r>   19.8813    0.0000 </r>
       <r>   19.8813    0.0000 </r>
       <r>   21.1671    0.0000 </r>
       <r>   21.1671    0.0000 </r>
       <r>   23.6150    0.0000 </r>
       <r>   25.1863    0.0000 </r>
       <r>   32.9965    0.0000 </r>
       <r>   32.9965    0.0000 </r>
       <r>   39.9816    0.0000 </r>
       <r>   41.9194    0.0000 </r>
      </set>
      <set comment="kpoint 38">
       <r>    2.5582    1.0000 </r>
       <r>    5.4046    1.0000 </r>
       <r>   20.0069    0.0000 </r>
       <r>   20.0069    0.0000 </r>
       <r>   20.8785    0.0000 </r>
       <r>   20.8785    0.0000 </r>
       <r>   23.7569    0.0000 </r>
       <r>   24.8804    0.0000 </r>
       <r>   33.6400    0.0000 </r>
       <r>   33.6400    0.0000 </r>
       <r>   40.6803    0.0000 </r>
       <r>   41.1512    0.0000 </r>
      </set>
      <set comment="kpoint 39">
       <r>    3.2041    1.0000 </r>
       <r>    4.6599    1.0000 </r>
       <r>   20.1585    0.0000 </r>
       <r>   20.1585    0.0000 </r>
       <r>   20.6319    0.0000 </r>
       <r>   20.6319    0.0000 </r>
       <r>   23.9079    0.0000 </r>
       <r>   24.6460    0.0000 </r>
       <r>   34.1488    0.0000 </r>
       <r>   34.1488    0.0000 </r>
       <r>   40.6051    0.0000 </r>
       <r>   40.6061    0.0000 </r>
      </set>
      <set comment="kpoint 40">
       <r>    3.7386    1.0000 </r>
       <r>    4.0914    1.0000 </r>
       <r>   20.2730    0.0000 </r>
       <r>   20.2730    0.0000 </r>
       <r>   20.4845    0.0000 </r>
       <r>   20.4845    0.0000 </r>
       <r>   23.9856    0.0000 </r>
       <r>   24.5352    0.0000 </r>
       <r>   34.3234    0.0000 </r>
       <r>   34.3234    0.0000 </r>
       <r>   40.4024    0.0000 </r>
       <r>   40.4031    0.0000 </r>
      </set>
      <set comment="kpoint 41">
       <r>    3.7386    1.0000 </r>
       <r>    4.0914    1.0000 </r>
       <r>   20.2730    0.0000 </r>
       <r>   20.2730    0.0000 </r>
       <r>   20.4845    0.0000 </r>
       <r>   20.4845    0.0000 </r>
       <r>   23.9856    0.0000 </r>
       <r>   24.5352    0.0000 </r>
       <r>   34.3234    0.0000 </r>
       <r>   34.3234    0.0000 </r>
       <r>   40.4024    0.0000 </r>
       <r>   40.4032    0.0000 </r>
      </set>
      <set comment="kpoint 42">
       <r>    3.7506    1.0000 </r>
       <r>    4.1040    1.0000 </r>
       <r>   19.7903    0.0000 </r>
       <r>   19.8463    0.0000 </r>
       <r>   20.8190    0.0000 </r>
       <r>   20.8198    0.0000 </r>
       <r>   24.1687    0.0000 </r>
       <r>   24.6515    0.0000 </r>
       <r>   34.2285    0.0000 </r>
       <r>   34.2906    0.0000 </r>
       <r>   40.3902    0.0000 </r>
       <r>   40.4528    0.0000 </r>
      </set>
      <set comment="kpoint 43">
       <r>    3.7865    1.0000 </r>
       <r>    4.1419    1.0000 </r>
       <r>   19.1150    0.0000 </r>
       <r>   19.2598    0.0000 </r>
       <r>   21.1014    0.0000 </r>
       <r>   21.1470    0.0000 </r>
       <r>   24.6692    0.0000 </r>
       <r>   24.9815    0.0000 </r>
       <r>   33.9618    0.0000 </r>
       <r>   34.1929    0.0000 </r>
       <r>   40.3586    0.0000 </r>
       <r>   40.5704    0.0000 </r>
      </set>
      <set comment="kpoint 44">
       <r>    3.8464    1.0000 </r>
       <r>    4.2044    1.0000 </r>
       <r>   18.3814    0.0000 </r>
       <r>   18.6231    0.0000 </r>
       <r>   21.2945    0.0000 </r>
       <r>   21.4019    0.0000 </r>
       <r>   25.3870    0.0000 </r>
       <r>   25.4778    0.0000 </r>
       <r>   33.5463    0.0000 </r>
       <r>   34.0321    0.0000 </r>
       <r>   40.3192    0.0000 </r>
       <r>   40.7001    0.0000 </r>
      </set>
      <set comment="kpoint 45">
       <r>    3.9302    1.0000 </r>
       <r>    4.2924    1.0000 </r>
       <r>   17.6254    0.0000 </r>
       <r>   17.9594    0.0000 </r>
       <r>   21.4463    0.0000 </r>
       <r>   21.6132    0.0000 </r>
       <r>   26.0908    0.0000 </r>
       <r>   26.2398    0.0000 </r>
       <r>   33.0637    0.0000 </r>
       <r>   33.8153    0.0000 </r>
       <r>   40.2926    0.0000 </r>
       <r>   40.8232    0.0000 </r>
      </set>
      <set comment="kpoint 46">
       <r>    4.0379    1.0000 </r>
       <r>    4.4035    1.0000 </r>
       <r>   16.8694    0.0000 </r>
       <r>   17.2839    0.0000 </r>
       <r>   21.5871    0.0000 </r>
       <r>   21.8035    0.0000 </r>
       <r>   26.7759    0.0000 </r>
       <r>   27.1909    0.0000 </r>
       <r>   32.5219    0.0000 </r>
       <r>   33.5208    0.0000 </r>
       <r>   40.2860    0.0000 </r>
       <r>   40.9438    0.0000 </r>
      </set>
      <set comment="kpoint 47">
       <r>    4.1695    1.0000 </r>
       <r>    4.5409    1.0000 </r>
       <r>   16.1162    0.0000 </r>
       <r>   16.6057    0.0000 </r>
       <r>   21.7303    0.0000 </r>
       <r>   21.9896    0.0000 </r>
       <r>   27.4957    0.0000 </r>
       <r>   28.1899    0.0000 </r>
       <r>   31.9590    0.0000 </r>
       <r>   33.2249    0.0000 </r>
       <r>   40.3193    0.0000 </r>
       <r>   41.0759    0.0000 </r>
      </set>
      <set comment="kpoint 48">
       <r>    4.3253    1.0000 </r>
       <r>    4.7028    1.0000 </r>
       <r>   15.3765    0.0000 </r>
       <r>   15.9321    0.0000 </r>
       <r>   21.8845    0.0000 </r>
       <r>   22.1816    0.0000 </r>
       <r>   28.2186    0.0000 </r>
       <r>   29.2322    0.0000 </r>
       <r>   31.3979    0.0000 </r>
       <r>   32.9235    0.0000 </r>
       <r>   40.4010    0.0000 </r>
       <r>   41.2223    0.0000 </r>
      </set>
      <set comment="kpoint 49">
       <r>    4.5047    1.0000 </r>
       <r>    4.8881    1.0000 </r>
       <r>   14.6541    0.0000 </r>
       <r>   15.2679    0.0000 </r>
       <r>   22.0537    0.0000 </r>
       <r>   22.3844    0.0000 </r>
       <r>   28.8994    0.0000 </r>
       <r>   30.2892    0.0000 </r>
       <r>   30.8412    0.0000 </r>
       <r>   32.6488    0.0000 </r>
       <r>   40.5210    0.0000 </r>
       <r>   41.3855    0.0000 </r>
      </set>
      <set comment="kpoint 50">
       <r>    4.7078    1.0000 </r>
       <r>    5.0966    1.0000 </r>
       <r>   13.9514    0.0000 </r>
       <r>   14.6166    0.0000 </r>
       <r>   22.2397    0.0000 </r>
       <r>   22.5994    0.0000 </r>
       <r>   29.4625    0.0000 </r>
       <r>   30.1990    0.0000 </r>
       <r>   31.4499    0.0000 </r>
       <r>   32.4751    0.0000 </r>
       <r>   40.6868    0.0000 </r>
       <r>   41.5675    0.0000 </r>
      </set>
      <set comment="kpoint 51">
       <r>    4.9346    1.0000 </r>
       <r>    5.3275    1.0000 </r>
       <r>   13.2701    0.0000 </r>
       <r>   13.9812    0.0000 </r>
       <r>   22.4443    0.0000 </r>
       <r>   22.8311    0.0000 </r>
       <r>   29.6393    0.0000 </r>
       <r>   29.7875    0.0000 </r>
       <r>   32.5339    0.0000 </r>
       <r>   32.5820    0.0000 </r>
       <r>   40.8981    0.0000 </r>
       <r>   41.7706    0.0000 </r>
      </set>
      <set comment="kpoint 52">
       <r>    5.1851    1.0000 </r>
       <r>    5.5798    1.0000 </r>
       <r>   12.6120    0.0000 </r>
       <r>   13.3650    0.0000 </r>
       <r>   22.6682    0.0000 </r>
       <r>   23.0803    0.0000 </r>
       <r>   29.0892    0.0000 </r>
       <r>   29.8072    0.0000 </r>
       <r>   32.8979    0.0000 </r>
       <r>   33.7479    0.0000 </r>
       <r>   41.1549    0.0000 </r>
       <r>   41.9962    0.0000 </r>
      </set>
      <set comment="kpoint 53">
       <r>    5.4586    1.0000 </r>
       <r>    5.8516    1.0000 </r>
       <r>   11.9770    0.0000 </r>
       <r>   12.7693    0.0000 </r>
       <r>   22.9113    0.0000 </r>
       <r>   23.3397    0.0000 </r>
       <r>   28.5500    0.0000 </r>
       <r>   29.5967    0.0000 </r>
       <r>   33.4661    0.0000 </r>
       <r>   34.9268    0.0000 </r>
       <r>   41.4566    0.0000 </r>
       <r>   42.2460    0.0000 </r>
      </set>
      <set comment="kpoint 54">
       <r>    5.7547    1.0000 </r>
       <r>    6.1408    1.0000 </r>
       <r>   11.3666    0.0000 </r>
       <r>   12.1979    0.0000 </r>
       <r>   23.1717    0.0000 </r>
       <r>   23.6095    0.0000 </r>
       <r>   28.0206    0.0000 </r>
       <r>   29.2641    0.0000 </r>
       <r>   34.1218    0.0000 </r>
       <r>   36.1160    0.0000 </r>
       <r>   41.8032    0.0000 </r>
       <r>   42.5231    0.0000 </r>
      </set>
      <set comment="kpoint 55">
       <r>    6.0728    1.0000 </r>
       <r>    6.4435    1.0000 </r>
       <r>   10.7823    0.0000 </r>
       <r>   11.6558    0.0000 </r>
       <r>   23.4530    0.0000 </r>
       <r>   23.8852    0.0000 </r>
       <r>   27.5179    0.0000 </r>
       <r>   28.9019    0.0000 </r>
       <r>   34.7930    0.0000 </r>
       <r>   37.3057    0.0000 </r>
       <r>   42.1959    0.0000 </r>
       <r>   42.8321    0.0000 </r>
      </set>
      <set comment="kpoint 56">
       <r>    6.4110    1.0000 </r>
       <r>    6.7532    1.0000 </r>
       <r>   10.2260    0.0000 </r>
       <r>   11.1495    0.0000 </r>
       <r>   23.7522    0.0000 </r>
       <r>   24.1589    0.0000 </r>
       <r>   27.0361    0.0000 </r>
       <r>   28.5372    0.0000 </r>
       <r>   35.4276    0.0000 </r>
       <r>   38.4769    0.0000 </r>
       <r>   42.6341    0.0000 </r>
       <r>   43.1816    0.0000 </r>
      </set>
      <set comment="kpoint 57">
       <r>    6.7652    1.0000 </r>
       <r>    7.0582    1.0000 </r>
       <r>    9.7010    0.0000 </r>
       <r>   10.6910    0.0000 </r>
       <r>   24.0628    0.0000 </r>
       <r>   24.4181    0.0000 </r>
       <r>   26.5706    0.0000 </r>
       <r>   28.1929    0.0000 </r>
       <r>   35.9787    0.0000 </r>
       <r>   39.6099    0.0000 </r>
       <r>   43.1306    0.0000 </r>
       <r>   43.5860    0.0000 </r>
      </set>
      <set comment="kpoint 58">
       <r>    7.1262    1.0000 </r>
       <r>    7.3363    1.0037 </r>
       <r>    9.2188    0.0000 </r>
       <r>   10.3034    0.0000 </r>
       <r>   24.3864    0.0000 </r>
       <r>   24.6428    0.0000 </r>
       <r>   26.1470    0.0000 </r>
       <r>   27.9057    0.0000 </r>
       <r>   36.4228    0.0000 </r>
       <r>   40.6037    0.0000 </r>
       <r>   43.6392    0.0000 </r>
       <r>   44.0653    0.0000 </r>
      </set>
      <set comment="kpoint 59">
       <r>    7.4587    1.0226 </r>
       <r>    7.5458    1.0350 </r>
       <r>    8.8133    0.0000 </r>
       <r>   10.0280    0.0000 </r>
       <r>   24.6928    0.0000 </r>
       <r>   24.8004    0.0000 </r>
       <r>   25.7791    0.0000 </r>
       <r>   27.7094    0.0000 </r>
       <r>   36.7051    0.0000 </r>
       <r>   41.3428    0.0000 </r>
       <r>   44.1134    0.0000 </r>
       <r>   44.4994    0.0000 </r>
      </set>
      <set comment="kpoint 60">
       <r>    7.6271    0.9813 </r>
       <r>    7.6271    0.9813 </r>
       <r>    8.6206    0.0000 </r>
       <r>    9.9247    0.0000 </r>
       <r>   24.8583    0.0000 </r>
       <r>   24.8583    0.0000 </r>
       <r>   25.5930    0.0000 </r>
       <r>   27.6383    0.0000 </r>
       <r>   36.8030    0.0000 </r>
       <r>   41.6298    0.0000 </r>
       <r>   44.3357    0.0000 </r>
       <r>   44.3542    0.0000 </r>
      </set>
      <set comment="kpoint 61">
       <r>    7.6271    0.9813 </r>
       <r>    7.6271    0.9813 </r>
       <r>    8.6206    0.0000 </r>
       <r>    9.9247    0.0000 </r>
       <r>   24.8583    0.0000 </r>
       <r>   24.8583    0.0000 </r>
       <r>   25.5930    0.0000 </r>
       <r>   27.6383    0.0000 </r>
       <r>   36.8030    0.0000 </r>
       <r>   41.6298    0.0000 </r>
       <r>   44.3372    0.0000 </r>
       <r>   44.3604    0.0000 </r>
      </set>
      <set comment="kpoint 62">
       <r>    7.5173    1.0343 </r>
       <r>    7.7045    0.7979 </r>
       <r>    8.6367    0.0000 </r>
       <r>    9.9527    0.0000 </r>
       <r>   24.4957    0.0000 </r>
       <r>   25.1953    0.0000 </r>
       <r>   25.5790    0.0000 </r>
       <r>   27.6853    0.0000 </r>
       <r>   36.7898    0.0000 </r>
       <r>   41.5910    0.0000 </r>
       <r>   44.2799    0.0000 </r>
       <r>   44.3856    0.0000 </r>
      </set>
      <set comment="kpoint 63">
       <r>    7.4135    1.0131 </r>
       <r>    7.7199    0.7443 </r>
       <r>    8.6672    0.0000 </r>
       <r>   10.0451    0.0000 </r>
       <r>   24.0915    0.0000 </r>
       <r>   25.5373    0.0000 </r>
       <r>   25.5387    0.0000 </r>
       <r>   27.8098    0.0000 </r>
       <r>   36.7486    0.0000 </r>
       <r>   41.4756    0.0000 </r>
       <r>   44.2271    0.0000 </r>
       <r>   44.4133    0.0000 </r>
      </set>
      <set comment="kpoint 64">
       <r>    7.3156    1.0024 </r>
       <r>    7.6949    0.8287 </r>
       <r>    8.6860    0.0000 </r>
       <r>   10.2068    0.0000 </r>
       <r>   23.6607    0.0000 </r>
       <r>   25.4815    0.0000 </r>
       <r>   25.8841    0.0000 </r>
       <r>   27.9875    0.0000 </r>
       <r>   36.6776    0.0000 </r>
       <r>   41.2922    0.0000 </r>
       <r>   44.1715    0.0000 </r>
       <r>   44.2267    0.0000 </r>
      </set>
      <set comment="kpoint 65">
       <r>    7.2236    1.0003 </r>
       <r>    7.6482    0.9460 </r>
       <r>    8.6825    0.0000 </r>
       <r>   10.4295    0.0000 </r>
       <r>   23.2127    0.0000 </r>
       <r>   25.4159    0.0000 </r>
       <r>   26.2357    0.0000 </r>
       <r>   28.2001    0.0000 </r>
       <r>   36.5752    0.0000 </r>
       <r>   41.0553    0.0000 </r>
       <r>   43.9592    0.0000 </r>
       <r>   44.1103    0.0000 </r>
      </set>
      <set comment="kpoint 66">
       <r>    7.1376    1.0000 </r>
       <r>    7.5916    1.0185 </r>
       <r>    8.6593    0.0000 </r>
       <r>   10.6987    0.0000 </r>
       <r>   22.7540    0.0000 </r>
       <r>   25.3477    0.0000 </r>
       <r>   26.5917    0.0000 </r>
       <r>   28.4350    0.0000 </r>
       <r>   36.4405    0.0000 </r>
       <r>   40.7801    0.0000 </r>
       <r>   43.6984    0.0000 </r>
       <r>   44.0523    0.0000 </r>
      </set>
      <set comment="kpoint 67">
       <r>    7.0576    1.0000 </r>
       <r>    7.5314    1.0354 </r>
       <r>    8.6229    0.0000 </r>
       <r>   11.0007    0.0000 </r>
       <r>   22.2882    0.0000 </r>
       <r>   25.2801    0.0000 </r>
       <r>   26.9521    0.0000 </r>
       <r>   28.6819    0.0000 </r>
       <r>   36.2737    0.0000 </r>
       <r>   40.4591    0.0000 </r>
       <r>   43.4544    0.0000 </r>
       <r>   43.9943    0.0000 </r>
      </set>
      <set comment="kpoint 68">
       <r>    6.9839    1.0000 </r>
       <r>    7.4715    1.0256 </r>
       <r>    8.5802    0.0000 </r>
       <r>   11.3275    0.0000 </r>
       <r>   21.8243    0.0000 </r>
       <r>   25.2159    0.0000 </r>
       <r>   27.3374    0.0000 </r>
       <r>   28.9568    0.0000 </r>
       <r>   36.0828    0.0000 </r>
       <r>   40.1505    0.0000 </r>
       <r>   43.2328    0.0000 </r>
       <r>   43.9414    0.0000 </r>
      </set>
      <set comment="kpoint 69">
       <r>    6.9156    1.0000 </r>
       <r>    7.4134    1.0131 </r>
       <r>    8.5342    0.0000 </r>
       <r>   11.6709    0.0000 </r>
       <r>   21.3553    0.0000 </r>
       <r>   25.1549    0.0000 </r>
       <r>   27.7063    0.0000 </r>
       <r>   29.2178    0.0000 </r>
       <r>   35.8542    0.0000 </r>
       <r>   39.8281    0.0000 </r>
       <r>   43.0344    0.0000 </r>
       <r>   43.8863    0.0000 </r>
      </set>
      <set comment="kpoint 70">
       <r>    6.8533    1.0000 </r>
       <r>    7.3584    1.0055 </r>
       <r>    8.4878    0.0000 </r>
       <r>   12.0271    0.0000 </r>
       <r>   20.8872    0.0000 </r>
       <r>   25.0968    0.0000 </r>
       <r>   28.0752    0.0000 </r>
       <r>   29.4778    0.0000 </r>
       <r>   35.5720    0.0000 </r>
       <r>   39.5053    0.0000 </r>
       <r>   42.8599    0.0000 </r>
       <r>   43.8212    0.0000 </r>
      </set>
      <set comment="kpoint 71">
       <r>    6.7970    1.0000 </r>
       <r>    7.3076    1.0021 </r>
       <r>    8.4433    0.0000 </r>
       <r>   12.3935    0.0000 </r>
       <r>   20.4215    0.0000 </r>
       <r>   25.0450    0.0000 </r>
       <r>   28.4503    0.0000 </r>
       <r>   29.7356    0.0000 </r>
       <r>   35.2923    0.0000 </r>
       <r>   39.1881    0.0000 </r>
       <r>   42.7086    0.0000 </r>
       <r>   43.7728    0.0000 </r>
      </set>
      <set comment="kpoint 72">
       <r>    6.7469    1.0000 </r>
       <r>    7.2617    1.0007 </r>
       <r>    8.4020   -0.0001 </r>
       <r>   12.7681    0.0000 </r>
       <r>   19.9598    0.0000 </r>
       <r>   25.0013    0.0000 </r>
       <r>   28.8384    0.0000 </r>
       <r>   30.0058    0.0000 </r>
       <r>   35.0286    0.0000 </r>
       <r>   38.8825    0.0000 </r>
       <r>   42.5931    0.0000 </r>
       <r>   43.7303    0.0000 </r>
      </set>
      <set comment="kpoint 73">
       <r>    6.7024    1.0000 </r>
       <r>    7.2205    1.0003 </r>
       <r>    8.3641   -0.0001 </r>
       <r>   13.1480    0.0000 </r>
       <r>   19.5032    0.0000 </r>
       <r>   24.9598    0.0000 </r>
       <r>   29.2180    0.0000 </r>
       <r>   30.2465    0.0000 </r>
       <r>   34.7067    0.0000 </r>
       <r>   38.5907    0.0000 </r>
       <r>   42.4838    0.0000 </r>
       <r>   43.6905    0.0000 </r>
      </set>
      <set comment="kpoint 74">
       <r>    6.6639    1.0000 </r>
       <r>    7.1844    1.0001 </r>
       <r>    8.3304   -0.0004 </r>
       <r>   13.5313    0.0000 </r>
       <r>   19.0538    0.0000 </r>
       <r>   24.9238    0.0000 </r>
       <r>   29.5983    0.0000 </r>
       <r>   30.4724    0.0000 </r>
       <r>   34.3708    0.0000 </r>
       <r>   38.3193    0.0000 </r>
       <r>   42.3929    0.0000 </r>
       <r>   43.6556    0.0000 </r>
      </set>
      <set comment="kpoint 75">
       <r>    6.6313    1.0000 </r>
       <r>    7.1537    1.0000 </r>
       <r>    8.3014   -0.0007 </r>
       <r>   13.9151    0.0000 </r>
       <r>   18.6142    0.0000 </r>
       <r>   24.8931    0.0000 </r>
       <r>   29.9777    0.0000 </r>
       <r>   30.6783    0.0000 </r>
       <r>   34.0249    0.0000 </r>
       <r>   38.0740    0.0000 </r>
       <r>   42.3187    0.0000 </r>
       <r>   43.6255    0.0000 </r>
      </set>
      <set comment="kpoint 76">
       <r>    6.6046    1.0000 </r>
       <r>    7.1284    1.0000 </r>
       <r>    8.2773   -0.0012 </r>
       <r>   14.2947    0.0000 </r>
       <r>   18.1891    0.0000 </r>
       <r>   24.8680    0.0000 </r>
       <r>   30.3533    0.0000 </r>
       <r>   30.8589    0.0000 </r>
       <r>   33.6737    0.0000 </r>
       <r>   37.8607    0.0000 </r>
       <r>   42.2599    0.0000 </r>
       <r>   43.6008    0.0000 </r>
      </set>
      <set comment="kpoint 77">
       <r>    6.5839    1.0000 </r>
       <r>    7.1086    1.0000 </r>
       <r>    8.2584   -0.0019 </r>
       <r>   14.6614    0.0000 </r>
       <r>   17.7871    0.0000 </r>
       <r>   24.8485    0.0000 </r>
       <r>   30.7198    0.0000 </r>
       <r>   31.0081    0.0000 </r>
       <r>   33.3245    0.0000 </r>
       <r>   37.6857    0.0000 </r>
       <r>   42.2154    0.0000 </r>
       <r>   43.5815    0.0000 </r>
      </set>
      <set comment="kpoint 78">
       <r>    6.5689    1.0000 </r>
       <r>    7.0943    1.0000 </r>
       <r>    8.2446   -0.0025 </r>
       <r>   14.9964    0.0000 </r>
       <r>   17.4261    0.0000 </r>
       <r>   24.8334    0.0000 </r>
       <r>   31.0645    0.0000 </r>
       <r>   31.1165    0.0000 </r>
       <r>   32.9715    0.0000 </r>
       <r>   37.5552    0.0000 </r>
       <r>   42.1723    0.0000 </r>
       <r>   43.5631    0.0000 </r>
      </set>
      <set comment="kpoint 79">
       <r>    6.5600    1.0000 </r>
       <r>    7.0858    1.0000 </r>
       <r>    8.2364   -0.0029 </r>
       <r>   15.2573    0.0000 </r>
       <r>   17.1501    0.0000 </r>
       <r>   24.8250    0.0000 </r>
       <r>   31.1860    0.0000 </r>
       <r>   31.3514    0.0000 </r>
       <r>   32.6914    0.0000 </r>
       <r>   37.4744    0.0000 </r>
       <r>   42.1536    0.0000 </r>
       <r>   43.5548    0.0000 </r>
      </set>
      <set comment="kpoint 80">
       <r>    6.5570    1.0000 </r>
       <r>    7.0830    1.0000 </r>
       <r>    8.2337   -0.0031 </r>
       <r>   15.3632    0.0000 </r>
       <r>   17.0391    0.0000 </r>
       <r>   24.8222    0.0000 </r>
       <r>   31.2097    0.0000 </r>
       <r>   31.4795    0.0000 </r>
       <r>   32.5656    0.0000 </r>
       <r>   37.4470    0.0000 </r>
       <r>   42.1474    0.0000 </r>
       <r>   43.5521    0.0000 </r>
      </set>
      <set comment="kpoint 81">
       <r>    6.5570    1.0000 </r>
       <r>    7.0830    1.0000 </r>
       <r>    8.2337   -0.0031 </r>
       <r>   15.3632    0.0000 </r>
       <r>   17.0391    0.0000 </r>
       <r>   24.8222    0.0000 </r>
       <r>   31.2097    0.0000 </r>
       <r>   31.4795    0.0000 </r>
       <r>   32.5656    0.0000 </r>
       <r>   37.4470    0.0000 </r>
       <r>   42.1474    0.0000 </r>
       <r>   43.5521    0.0000 </r>
      </set>
      <set comment="kpoint 82">
       <r>    6.1552    1.0000 </r>
       <r>    6.9217    1.0000 </r>
       <r>    8.5459    0.0000 </r>
       <r>   15.7045    0.0000 </r>
       <r>   17.4472    0.0000 </r>
       <r>   26.3088    0.0000 </r>
       <r>   30.4389    0.0000 </r>
       <r>   30.5118    0.0000 </r>
       <r>   31.7545    0.0000 </r>
       <r>   36.5194    0.0000 </r>
       <r>   41.3163    0.0000 </r>
       <r>   42.7310    0.0000 </r>
      </set>
      <set comment="kpoint 83">
       <r>    5.2187    1.0000 </r>
       <r>    7.3401    1.0039 </r>
       <r>    8.9655    0.0000 </r>
       <r>   16.0962    0.0000 </r>
       <r>   17.9006    0.0000 </r>
       <r>   27.7687    0.0000 </r>
       <r>   29.5789    0.0000 </r>
       <r>   29.6942    0.0000 </r>
       <r>   30.9684    0.0000 </r>
       <r>   35.6689    0.0000 </r>
       <r>   40.4871    0.0000 </r>
       <r>   41.9347    0.0000 </r>
      </set>
      <set comment="kpoint 84">
       <r>    4.3176    1.0000 </r>
       <r>    7.8123    0.3682 </r>
       <r>    9.4494    0.0000 </r>
       <r>   16.5354    0.0000 </r>
       <r>   18.4018    0.0000 </r>
       <r>   28.6753    0.0000 </r>
       <r>   28.9650    0.0000 </r>
       <r>   29.1302    0.0000 </r>
       <r>   30.2085    0.0000 </r>
       <r>   34.9456    0.0000 </r>
       <r>   39.6802    0.0000 </r>
       <r>   41.2096    0.0000 </r>
      </set>
      <set comment="kpoint 85">
       <r>    3.4614    1.0000 </r>
       <r>    8.3383   -0.0003 </r>
       <r>    9.9889    0.0000 </r>
       <r>   17.0273    0.0000 </r>
       <r>   18.9477    0.0000 </r>
       <r>   27.8282    0.0000 </r>
       <r>   28.2927    0.0000 </r>
       <r>   29.4911    0.0000 </r>
       <r>   30.2062    0.0000 </r>
       <r>   34.4706    0.0000 </r>
       <r>   38.9065    0.0000 </r>
       <r>   40.6213    0.0000 </r>
      </set>
      <set comment="kpoint 86">
       <r>    2.6530    1.0000 </r>
       <r>    8.9186    0.0000 </r>
       <r>   10.5804    0.0000 </r>
       <r>   17.5704    0.0000 </r>
       <r>   19.5393    0.0000 </r>
       <r>   27.0293    0.0000 </r>
       <r>   27.6654    0.0000 </r>
       <r>   28.8143    0.0000 </r>
       <r>   30.7303    0.0000 </r>
       <r>   34.4264    0.0000 </r>
       <r>   38.1712    0.0000 </r>
       <r>   40.2843    0.0000 </r>
      </set>
      <set comment="kpoint 87">
       <r>    1.8955    1.0000 </r>
       <r>    9.5528    0.0000 </r>
       <r>   11.2213    0.0000 </r>
       <r>   18.1630    0.0000 </r>
       <r>   20.1734    0.0000 </r>
       <r>   26.2804    0.0000 </r>
       <r>   27.0751    0.0000 </r>
       <r>   28.1785    0.0000 </r>
       <r>   30.6201    0.0000 </r>
       <r>   34.6692    0.0000 </r>
       <r>   37.4738    0.0000 </r>
       <r>   40.3931    0.0000 </r>
      </set>
      <set comment="kpoint 88">
       <r>    1.1893    1.0000 </r>
       <r>   10.2412    0.0000 </r>
       <r>   11.9091    0.0000 </r>
       <r>   18.8046    0.0000 </r>
       <r>   20.8483    0.0000 </r>
       <r>   25.5833    0.0000 </r>
       <r>   26.5274    0.0000 </r>
       <r>   27.5861    0.0000 </r>
       <r>   30.1633    0.0000 </r>
       <r>   34.7549    0.0000 </r>
       <r>   36.8129    0.0000 </r>
       <r>   41.0957    0.0000 </r>
      </set>
      <set comment="kpoint 89">
       <r>    0.5367    1.0000 </r>
       <r>   10.9832    0.0000 </r>
       <r>   12.6408    0.0000 </r>
       <r>   19.4921    0.0000 </r>
       <r>   21.5588    0.0000 </r>
       <r>   24.9239    0.0000 </r>
       <r>   26.0209    0.0000 </r>
       <r>   27.0350    0.0000 </r>
       <r>   29.5847    0.0000 </r>
       <r>   34.5581    0.0000 </r>
       <r>   36.1814    0.0000 </r>
       <r>   42.3923    0.0000 </r>
      </set>
      <set comment="kpoint 90">
       <r>   -0.0621    1.0000 </r>
       <r>   11.7796    0.0000 </r>
       <r>   13.4142    0.0000 </r>
       <r>   20.2307    0.0000 </r>
       <r>   22.3053    0.0000 </r>
       <r>   24.3337    0.0000 </r>
       <r>   25.5672    0.0000 </r>
       <r>   26.5327    0.0000 </r>
       <r>   28.9840    0.0000 </r>
       <r>   34.1685    0.0000 </r>
       <r>   35.5643    0.0000 </r>
       <r>   40.8116    0.0000 </r>
      </set>
      <set comment="kpoint 91">
       <r>   -0.6061    1.0000 </r>
       <r>   12.6296    0.0000 </r>
       <r>   14.2259    0.0000 </r>
       <r>   21.0145    0.0000 </r>
       <r>   23.0809    0.0000 </r>
       <r>   23.7980    0.0000 </r>
       <r>   25.1617    0.0000 </r>
       <r>   26.0758    0.0000 </r>
       <r>   28.3858    0.0000 </r>
       <r>   33.6956    0.0000 </r>
       <r>   34.9285    0.0000 </r>
       <r>   39.0628    0.0000 </r>
      </set>
      <set comment="kpoint 92">
       <r>   -1.0948    1.0000 </r>
       <r>   13.5329    0.0000 </r>
       <r>   15.0712    0.0000 </r>
       <r>   21.8371    0.0000 </r>
       <r>   23.3176    0.0000 </r>
       <r>   23.8788    0.0000 </r>
       <r>   24.8091    0.0000 </r>
       <r>   25.6644    0.0000 </r>
       <r>   27.7950    0.0000 </r>
       <r>   33.1877    0.0000 </r>
       <r>   34.2030    0.0000 </r>
       <r>   37.5071    0.0000 </r>
      </set>
      <set comment="kpoint 93">
       <r>   -1.5275    1.0000 </r>
       <r>   14.4883    0.0000 </r>
       <r>   15.9453    0.0000 </r>
       <r>   22.6794    0.0000 </r>
       <r>   22.8929    0.0000 </r>
       <r>   24.5263    0.0000 </r>
       <r>   24.6897    0.0000 </r>
       <r>   25.2982    0.0000 </r>
       <r>   27.2171    0.0000 </r>
       <r>   32.6876    0.0000 </r>
       <r>   33.2689    0.0000 </r>
       <r>   36.2686    0.0000 </r>
      </set>
      <set comment="kpoint 94">
       <r>   -1.9037    1.0000 </r>
       <r>   15.4913    0.0000 </r>
       <r>   16.8412    0.0000 </r>
       <r>   22.5241    0.0000 </r>
       <r>   23.4392    0.0000 </r>
       <r>   24.4110    0.0000 </r>
       <r>   24.9753    0.0000 </r>
       <r>   25.4925    0.0000 </r>
       <r>   26.6536    0.0000 </r>
       <r>   32.0482    0.0000 </r>
       <r>   32.2170    0.0000 </r>
       <r>   35.4170    0.0000 </r>
      </set>
      <set comment="kpoint 95">
       <r>   -2.2228    1.0000 </r>
       <r>   16.5451    0.0000 </r>
       <r>   17.7519    0.0000 </r>
       <r>   22.2118    0.0000 </r>
       <r>   23.6944    0.0000 </r>
       <r>   24.6962    0.0000 </r>
       <r>   24.8780    0.0000 </r>
       <r>   25.9702    0.0000 </r>
       <r>   26.4100    0.0000 </r>
       <r>   30.6644    0.0000 </r>
       <r>   31.8164    0.0000 </r>
       <r>   34.8671    0.0000 </r>
      </set>
      <set comment="kpoint 96">
       <r>   -2.4846    1.0000 </r>
       <r>   17.6368    0.0000 </r>
       <r>   18.6604    0.0000 </r>
       <r>   21.9547    0.0000 </r>
       <r>   23.6004    0.0000 </r>
       <r>   24.4504    0.0000 </r>
       <r>   25.4313    0.0000 </r>
       <r>   25.7538    0.0000 </r>
       <r>   27.1051    0.0000 </r>
       <r>   29.2185    0.0000 </r>
       <r>   31.4884    0.0000 </r>
       <r>   34.4952    0.0000 </r>
      </set>
      <set comment="kpoint 97">
       <r>   -2.6884    1.0000 </r>
       <r>   18.7624    0.0000 </r>
       <r>   19.5571    0.0000 </r>
       <r>   21.7555    0.0000 </r>
       <r>   23.4801    0.0000 </r>
       <r>   24.2256    0.0000 </r>
       <r>   24.8243    0.0000 </r>
       <r>   26.6972    0.0000 </r>
       <r>   27.7643    0.0000 </r>
       <r>   27.8312    0.0000 </r>
       <r>   31.3003    0.0000 </r>
       <r>   34.2402    0.0000 </r>
      </set>
      <set comment="kpoint 98">
       <r>   -2.8342    1.0000 </r>
       <r>   19.8915    0.0000 </r>
       <r>   20.4121    0.0000 </r>
       <r>   21.6154    0.0000 </r>
       <r>   23.3860    0.0000 </r>
       <r>   23.9782    0.0000 </r>
       <r>   24.1977    0.0000 </r>
       <r>   26.5902    0.0000 </r>
       <r>   27.6257    0.0000 </r>
       <r>   28.2799    0.0000 </r>
       <r>   31.2928    0.0000 </r>
       <r>   34.0711    0.0000 </r>
      </set>
      <set comment="kpoint 99">
       <r>   -2.9216    1.0000 </r>
       <r>   20.9460    0.0000 </r>
       <r>   21.1500    0.0000 </r>
       <r>   21.5308    0.0000 </r>
       <r>   23.3278    0.0000 </r>
       <r>   23.6111    0.0000 </r>
       <r>   23.6189    0.0000 </r>
       <r>   25.6887    0.0000 </r>
       <r>   28.3765    0.0000 </r>
       <r>   28.5814    0.0000 </r>
       <r>   31.4416    0.0000 </r>
       <r>   33.9741    0.0000 </r>
      </set>
      <set comment="kpoint 100">
       <r>   -2.9508    1.0000 </r>
       <r>   21.5023    0.0000 </r>
       <r>   21.5023    0.0000 </r>
       <r>   21.5023    0.0000 </r>
       <r>   23.3078    0.0000 </r>
       <r>   23.3078    0.0000 </r>
       <r>   23.3079    0.0000 </r>
       <r>   25.3692    0.0000 </r>
       <r>   28.6708    0.0000 </r>
       <r>   28.6708    0.0000 </r>
       <r>   31.5495    0.0000 </r>
       <r>   33.9421    0.0000 </r>
      </set>
     </set>
    </set>
   </array>
  </eigenvalues>
  <separator name="orbital magnetization" >
   <v name="MAGDIPOLOUT">      0.00000000      0.00000000      0.00000000</v>
  </separator>
  <dos>
   <i name="efermi">      7.78066461 </i>
   <total>
    <array>
     <dimension dim="1">gridpoints</dimension>
     <dimension dim="2">spin</dimension>
     <field>energy</field>
     <field>total</field>
     <field>integrated</field>
     <set>
      <set comment="spin 1">
       <r>    -5.3233     0.0000     0.0000 </r>
       <r>    -5.1493     0.0000     0.0000 </r>
       <r>    -4.9753     0.0000     0.0000 </r>
       <r>    -4.8014     0.0000     0.0000 </r>
       <r>    -4.6274     0.0000     0.0000 </r>
       <r>    -4.4534     0.0000     0.0000 </r>
       <r>    -4.2794     0.0000     0.0000 </r>
       <r>    -4.1054     0.0000     0.0000 </r>
       <r>    -3.9314     0.0000     0.0000 </r>
       <r>    -3.7575     0.0000     0.0000 </r>
       <r>    -3.5835     0.0000     0.0000 </r>
       <r>    -3.4095    -0.0016    -0.0003 </r>
       <r>    -3.2355    -0.0219    -0.0041 </r>
       <r>    -3.0615     0.0580     0.0060 </r>
       <r>    -2.8875     0.5748     0.1060 </r>
       <r>    -2.7135     0.6366     0.2168 </r>
       <r>    -2.5396     0.3515     0.2779 </r>
       <r>    -2.3656     0.2674     0.3244 </r>
       <r>    -2.1916     0.2392     0.3661 </r>
       <r>    -2.0176     0.2046     0.4016 </r>
       <r>    -1.8436     0.1968     0.4359 </r>
       <r>    -1.6696     0.1731     0.4660 </r>
       <r>    -1.4957     0.1674     0.4951 </r>
       <r>    -1.3217     0.1594     0.5229 </r>
       <r>    -1.1477     0.1373     0.5468 </r>
       <r>    -0.9737     0.1580     0.5742 </r>
       <r>    -0.7997     0.1228     0.5956 </r>
       <r>    -0.6257     0.1267     0.6176 </r>
       <r>    -0.4518     0.1469     0.6432 </r>
       <r>    -0.2778     0.0974     0.6601 </r>
       <r>    -0.1038     0.1263     0.6821 </r>
       <r>     0.0702     0.1176     0.7026 </r>
       <r>     0.2442     0.1141     0.7224 </r>
       <r>     0.4182     0.1014     0.7401 </r>
       <r>     0.5921     0.0873     0.7552 </r>
       <r>     0.7661     0.1396     0.7795 </r>
       <r>     0.9401     0.1092     0.7985 </r>
       <r>     1.1141     0.0283     0.8035 </r>
       <r>     1.2881     0.1291     0.8259 </r>
       <r>     1.4621     0.1698     0.8555 </r>
       <r>     1.6361     0.0260     0.8600 </r>
       <r>     1.8100     0.0230     0.8640 </r>
       <r>     1.9840     0.1834     0.8959 </r>
       <r>     2.1580     0.1361     0.9196 </r>
       <r>     2.3320     0.0001     0.9196 </r>
       <r>     2.5060     0.0348     0.9257 </r>
       <r>     2.6800     0.1683     0.9549 </r>
       <r>     2.8539     0.1336     0.9782 </r>
       <r>     3.0279     0.0142     0.9807 </r>
       <r>     3.2019     0.0460     0.9886 </r>
       <r>     3.3759     0.0860     1.0036 </r>
       <r>     3.5499     0.1385     1.0277 </r>
       <r>     3.7239     0.2491     1.0710 </r>
       <r>     3.8978     0.3714     1.1357 </r>
       <r>     4.0718     0.3908     1.2037 </r>
       <r>     4.2458     0.5904     1.3064 </r>
       <r>     4.4198     0.4813     1.3901 </r>
       <r>     4.5938     0.2982     1.4420 </r>
       <r>     4.7678     0.2763     1.4901 </r>
       <r>     4.9418     0.2192     1.5282 </r>
       <r>     5.1157     0.2593     1.5733 </r>
       <r>     5.2897     0.2821     1.6224 </r>
       <r>     5.4637     0.3020     1.6750 </r>
       <r>     5.6377     0.2404     1.7168 </r>
       <r>     5.8117     0.1406     1.7412 </r>
       <r>     5.9857     0.1238     1.7628 </r>
       <r>     6.1596     0.2396     1.8045 </r>
       <r>     6.3336     0.2097     1.8410 </r>
       <r>     6.5076     0.3437     1.9008 </r>
       <r>     6.6816     0.7556     2.0322 </r>
       <r>     6.8556     0.6736     2.1494 </r>
       <r>     7.0296     0.7963     2.2880 </r>
       <r>     7.2035     1.1565     2.4892 </r>
       <r>     7.3775     0.9683     2.6576 </r>
       <r>     7.5515     0.9159     2.8170 </r>
       <r>     7.7255     0.8695     2.9683 </r>
       <r>     7.8995     0.3727     3.0331 </r>
       <r>     8.0735     0.0270     3.0378 </r>
       <r>     8.2474     0.4508     3.1163 </r>
       <r>     8.4214     0.8698     3.2676 </r>
       <r>     8.5954     0.8078     3.4081 </r>
       <r>     8.7694     0.8006     3.5474 </r>
       <r>     8.9434     0.3237     3.6038 </r>
       <r>     9.1174     0.1102     3.6229 </r>
       <r>     9.2914     0.1224     3.6442 </r>
       <r>     9.4653     0.1699     3.6738 </r>
       <r>     9.6393     0.1967     3.7080 </r>
       <r>     9.8133     0.1921     3.7414 </r>
       <r>     9.9873     0.3545     3.8031 </r>
       <r>    10.1613     0.4043     3.8734 </r>
       <r>    10.3353     0.3591     3.9359 </r>
       <r>    10.5092     0.2718     3.9832 </r>
       <r>    10.6832     0.2946     4.0345 </r>
       <r>    10.8572     0.2513     4.0782 </r>
       <r>    11.0312     0.1738     4.1084 </r>
       <r>    11.2052     0.2116     4.1452 </r>
       <r>    11.3792     0.2344     4.1860 </r>
       <r>    11.5531     0.2340     4.2267 </r>
       <r>    11.7271     0.2761     4.2748 </r>
       <r>    11.9011     0.2292     4.3146 </r>
       <r>    12.0751     0.2206     4.3530 </r>
       <r>    12.2491     0.1284     4.3753 </r>
       <r>    12.4231     0.0872     4.3905 </r>
       <r>    12.5970     0.2797     4.4392 </r>
       <r>    12.7710     0.4462     4.5168 </r>
       <r>    12.9450     0.1419     4.5415 </r>
       <r>    13.1190     0.0331     4.5473 </r>
       <r>    13.2930     0.1612     4.5753 </r>
       <r>    13.4670     0.2684     4.6220 </r>
       <r>    13.6410     0.2496     4.6654 </r>
       <r>    13.8149     0.2420     4.7075 </r>
       <r>    13.9889     0.4909     4.7930 </r>
       <r>    14.1629     0.3047     4.8460 </r>
       <r>    14.3369     0.4176     4.9186 </r>
       <r>    14.5109     0.7317     5.0459 </r>
       <r>    14.6849     0.7142     5.1702 </r>
       <r>    14.8588     0.4535     5.2491 </r>
       <r>    15.0328     0.3474     5.3095 </r>
       <r>    15.2068     0.4882     5.3945 </r>
       <r>    15.3808     0.5392     5.4883 </r>
       <r>    15.5548     0.4636     5.5689 </r>
       <r>    15.7288     0.2697     5.6158 </r>
       <r>    15.9027     0.3713     5.6804 </r>
       <r>    16.0767     0.3632     5.7436 </r>
       <r>    16.2507     0.2988     5.7956 </r>
       <r>    16.4247     0.2247     5.8347 </r>
       <r>    16.5987     0.3999     5.9043 </r>
       <r>    16.7727     0.2796     5.9530 </r>
       <r>    16.9466     0.4108     6.0244 </r>
       <r>    17.1206     0.5124     6.1136 </r>
       <r>    17.2946     0.2227     6.1523 </r>
       <r>    17.4686     0.3241     6.2087 </r>
       <r>    17.6426     0.5326     6.3014 </r>
       <r>    17.8166     0.3978     6.3706 </r>
       <r>    17.9906     0.3951     6.4393 </r>
       <r>    18.1645     0.6103     6.5455 </r>
       <r>    18.3385     0.4469     6.6233 </r>
       <r>    18.5125     0.3070     6.6767 </r>
       <r>    18.6865     0.5409     6.7708 </r>
       <r>    18.8605     0.5053     6.8587 </r>
       <r>    19.0345     0.3775     6.9244 </r>
       <r>    19.2084     0.4319     6.9995 </r>
       <r>    19.3824     0.3640     7.0629 </r>
       <r>    19.5564     0.4350     7.1385 </r>
       <r>    19.7304     0.9512     7.3040 </r>
       <r>    19.9044     1.3985     7.5474 </r>
       <r>    20.0784     1.1085     7.7402 </r>
       <r>    20.2523     0.9331     7.9026 </r>
       <r>    20.4263     0.9513     8.0681 </r>
       <r>    20.6003     0.8742     8.2202 </r>
       <r>    20.7743     0.7310     8.3474 </r>
       <r>    20.9483     0.7991     8.4864 </r>
       <r>    21.1223     0.8108     8.6275 </r>
       <r>    21.2963     0.8983     8.7837 </r>
       <r>    21.4702     1.2075     8.9938 </r>
       <r>    21.6442     1.3559     9.2297 </r>
       <r>    21.8182     0.7079     9.3529 </r>
       <r>    21.9922     0.6641     9.4684 </r>
       <r>    22.1662     0.4709     9.5504 </r>
       <r>    22.3402     0.5742     9.6503 </r>
       <r>    22.5141     0.4495     9.7285 </r>
       <r>    22.6881     0.4935     9.8143 </r>
       <r>    22.8621     0.4845     9.8986 </r>
       <r>    23.0361     0.3487     9.9593 </r>
       <r>    23.2101     0.7825    10.0955 </r>
       <r>    23.3841     1.8097    10.4103 </r>
       <r>    23.5580     1.7003    10.7061 </r>
       <r>    23.7320     1.4263    10.9543 </r>
       <r>    23.9060     1.0412    11.1355 </r>
       <r>    24.0800     0.8731    11.2874 </r>
       <r>    24.2540     0.6868    11.4069 </r>
       <r>    24.4280     0.6849    11.5260 </r>
       <r>    24.6019     1.0543    11.7095 </r>
       <r>    24.7759     1.2958    11.9349 </r>
       <r>    24.9499     1.7585    12.2409 </r>
       <r>    25.1239     1.2513    12.4586 </r>
       <r>    25.2979     1.0165    12.6354 </r>
       <r>    25.4719     1.1406    12.8339 </r>
       <r>    25.6459     1.1601    13.0357 </r>
       <r>    25.8198     0.5958    13.1394 </r>
       <r>    25.9938     0.3759    13.2048 </r>
       <r>    26.1678     0.6914    13.3251 </r>
       <r>    26.3418     0.8525    13.4734 </r>
       <r>    26.5158     0.6875    13.5930 </r>
       <r>    26.6898     0.7937    13.7311 </r>
       <r>    26.8637     0.3747    13.7963 </r>
       <r>    27.0377     0.5299    13.8885 </r>
       <r>    27.2117     1.1040    14.0806 </r>
       <r>    27.3857     0.5272    14.1723 </r>
       <r>    27.5597     0.3788    14.2382 </r>
       <r>    27.7337     1.1474    14.4379 </r>
       <r>    27.9076     0.9471    14.6026 </r>
       <r>    28.0816     0.5862    14.7046 </r>
       <r>    28.2556     1.0411    14.8858 </r>
       <r>    28.4296     0.9243    15.0466 </r>
       <r>    28.6036     0.9798    15.2171 </r>
       <r>    28.7776     1.0809    15.4051 </r>
       <r>    28.9515     0.7522    15.5360 </r>
       <r>    29.1255     0.8569    15.6851 </r>
       <r>    29.2995     0.8935    15.8405 </r>
       <r>    29.4735     0.5785    15.9412 </r>
       <r>    29.6475     0.7411    16.0701 </r>
       <r>    29.8215     0.5915    16.1730 </r>
       <r>    29.9955     0.5477    16.2683 </r>
       <r>    30.1694     0.6436    16.3803 </r>
       <r>    30.3434     0.6252    16.4891 </r>
       <r>    30.5174     0.5142    16.5785 </r>
       <r>    30.6914     0.6947    16.6994 </r>
       <r>    30.8654     0.6917    16.8197 </r>
       <r>    31.0394     0.6180    16.9273 </r>
       <r>    31.2133     0.5402    17.0212 </r>
       <r>    31.3873     0.7975    17.1600 </r>
       <r>    31.5613     1.2021    17.3691 </r>
       <r>    31.7353     0.5626    17.4670 </r>
       <r>    31.9093     0.4418    17.5439 </r>
       <r>    32.0833     0.3960    17.6128 </r>
       <r>    32.2572     0.2855    17.6625 </r>
       <r>    32.4312     0.3583    17.7248 </r>
       <r>    32.6052     0.7116    17.8486 </r>
       <r>    32.7792     0.6598    17.9634 </r>
       <r>    32.9532     0.4119    18.0351 </r>
       <r>    33.1272     0.4655    18.1160 </r>
       <r>    33.3012     0.4466    18.1937 </r>
       <r>    33.4751     0.6023    18.2985 </r>
       <r>    33.6491     0.6319    18.4085 </r>
       <r>    33.8231     0.4496    18.4867 </r>
       <r>    33.9971     0.7773    18.6220 </r>
       <r>    34.1711     1.3613    18.8588 </r>
       <r>    34.3451     1.2000    19.0676 </r>
       <r>    34.5190     0.8339    19.2127 </r>
       <r>    34.6930     0.6505    19.3258 </r>
       <r>    34.8670     0.8986    19.4822 </r>
       <r>    35.0410     0.6543    19.5960 </r>
       <r>    35.2150     0.1719    19.6259 </r>
       <r>    35.3890     0.3712    19.6905 </r>
       <r>    35.5629     0.6500    19.8036 </r>
       <r>    35.7369     0.3600    19.8662 </r>
       <r>    35.9109     0.2698    19.9131 </r>
       <r>    36.0849     0.3784    19.9790 </r>
       <r>    36.2589     0.6502    20.0921 </r>
       <r>    36.4329     0.7084    20.2154 </r>
       <r>    36.6068     0.6925    20.3358 </r>
       <r>    36.7808     0.6049    20.4411 </r>
       <r>    36.9548     0.3580    20.5034 </r>
       <r>    37.1288     0.0810    20.5175 </r>
       <r>    37.3028     0.1948    20.5514 </r>
       <r>    37.4768     0.5512    20.6473 </r>
       <r>    37.6508     0.4888    20.7323 </r>
       <r>    37.8247     0.2293    20.7722 </r>
       <r>    37.9987     0.1631    20.8006 </r>
       <r>    38.1727     0.1847    20.8327 </r>
       <r>    38.3467     0.3518    20.8939 </r>
       <r>    38.5207     0.2614    20.9394 </r>
       <r>    38.6947     0.1428    20.9643 </r>
       <r>    38.8686     0.1694    20.9937 </r>
       <r>    39.0426     0.1993    21.0284 </r>
       <r>    39.2166     0.2531    21.0724 </r>
       <r>    39.3906     0.2693    21.1193 </r>
       <r>    39.5646     0.2702    21.1663 </r>
       <r>    39.7386     0.2759    21.2143 </r>
       <r>    39.9125     0.1541    21.2411 </r>
       <r>    40.0865     0.0812    21.2552 </r>
       <r>    40.2605     0.3405    21.3145 </r>
       <r>    40.4345     1.1712    21.5182 </r>
       <r>    40.6085     1.2811    21.7411 </r>
       <r>    40.7825     0.7949    21.8794 </r>
       <r>    40.9564     0.4093    21.9506 </r>
       <r>    41.1304     0.4329    22.0259 </r>
       <r>    41.3044     0.5667    22.1245 </r>
       <r>    41.4784     0.5568    22.2214 </r>
       <r>    41.6524     0.5822    22.3227 </r>
       <r>    41.8264     0.4012    22.3925 </r>
       <r>    42.0004     0.3623    22.4555 </r>
       <r>    42.1743     0.6766    22.5733 </r>
       <r>    42.3483     0.7932    22.7113 </r>
       <r>    42.5223     0.4656    22.7923 </r>
       <r>    42.6963     0.5660    22.8907 </r>
       <r>    42.8703     0.5051    22.9786 </r>
       <r>    43.0443     0.2523    23.0225 </r>
       <r>    43.2182     0.5450    23.1173 </r>
       <r>    43.3922     0.6062    23.2228 </r>
       <r>    43.5662     0.7002    23.3446 </r>
       <r>    43.7402     0.9732    23.5139 </r>
       <r>    43.9142     0.5536    23.6102 </r>
       <r>    44.0882     0.5569    23.7071 </r>
       <r>    44.2621     0.7514    23.8379 </r>
       <r>    44.4361     0.7114    23.9616 </r>
       <r>    44.6101     0.2387    24.0032 </r>
       <r>    44.7841    -0.0101    24.0014 </r>
       <r>    44.9581    -0.0077    24.0001 </r>
       <r>    45.1321    -0.0004    24.0000 </r>
       <r>    45.3061     0.0000    24.0000 </r>
       <r>    45.4800     0.0000    24.0000 </r>
       <r>    45.6540     0.0000    24.0000 </r>
       <r>    45.8280     0.0000    24.0000 </r>
       <r>    46.0020     0.0000    24.0000 </r>
       <r>    46.1760     0.0000    24.0000 </r>
       <r>    46.3500     0.0000    24.0000 </r>
       <r>    46.5239     0.0000    24.0000 </r>
       <r>    46.6979     0.0000    24.0000 </r>
       <r>    46.8719     0.0000    24.0000 </r>
      </set>
     </set>
    </array>
   </total>
  </dos>
 </calculation>
 <structure name="finalpos" >
  <crystal>
   <varray name="basis" >
    <v>       0.00000000       1.98750000       1.98750000 </v>
    <v>       1.98750000       0.00000000       1.98750000 </v>
    <v>       1.98750000       1.98750000       0.00000000 </v>
   </varray>
   <i name="volume">     15.70187109 </i>
   <varray name="rec_basis" >
    <v>      -0.25157233       0.25157233       0.25157233 </v>
    <v>       0.25157233      -0.25157233       0.25157233 </v>
    <v>       0.25157233       0.25157233      -0.25157233 </v>
   </varray>
  </crystal>
  <varray name="positions" >
   <v>       0.00000000       0.00000000       0.00000000 </v>
  </varray>
 </structure>
</modeling>
