<?xml version="1.0" encoding="ISO-8859-1"?>
<modeling>
 <generator>
  <i name="program" type="string">vasp </i>
  <i name="version" type="string">5.3.3  </i>
  <i name="subversion" type="string">18Dez12 (build Feb 04 2014 23:58:42) complex                          parallel </i>
  <i name="platform" type="string">LinuxIFC </i>
  <i name="date" type="string">2019 04 27 </i>
  <i name="time" type="string">08:19:28 </i>
 </generator>
 <incar>
  <i type="string" name="SYSTEM">Al</i>
  <i type="int" name="ISTART">     1</i>
  <i type="string" name="PREC">accurate</i>
  <i type="int" name="ICHARG">    11</i>
  <i name="ENCUT">    250.00000000</i>
  <i type="int" name="ISMEAR">    -5</i>
  <i type="logical" name="LORBIT"> F  </i>
 </incar>
 <kpoints>
  <generation param="Monkhorst-Pack">
   <v type="int" name="divisions">      19       19       19 </v>
   <v name="usershift">      0.00000000       0.00000000       0.00000000 </v>
   <v name="genvec1">      0.05263158       0.00000000       0.00000000 </v>
   <v name="genvec2">      0.00000000       0.05263158       0.00000000 </v>
   <v name="genvec3">      0.00000000       0.00000000       0.05263158 </v>
   <v name="shift">      0.00000000       0.00000000       0.00000000 </v>
  </generation>
  <varray name="kpointlist" >
   <v>       0.00000000       0.00000000       0.00000000 </v>
   <v>       0.05263158       0.00000000       0.00000000 </v>
   <v>       0.10526316       0.00000000       0.00000000 </v>
   <v>       0.15789474       0.00000000       0.00000000 </v>
   <v>       0.21052632       0.00000000       0.00000000 </v>
   <v>       0.26315789       0.00000000       0.00000000 </v>
   <v>       0.31578947       0.00000000       0.00000000 </v>
   <v>       0.36842105       0.00000000       0.00000000 </v>
   <v>       0.42105263       0.00000000       0.00000000 </v>
   <v>       0.47368421       0.00000000       0.00000000 </v>
   <v>       0.05263158       0.05263158       0.00000000 </v>
   <v>       0.10526316       0.05263158       0.00000000 </v>
   <v>       0.15789474       0.05263158       0.00000000 </v>
   <v>       0.21052632       0.05263158       0.00000000 </v>
   <v>       0.26315789       0.05263158       0.00000000 </v>
   <v>       0.31578947       0.05263158       0.00000000 </v>
   <v>       0.36842105       0.05263158       0.00000000 </v>
   <v>       0.42105263       0.05263158       0.00000000 </v>
   <v>       0.47368421       0.05263158       0.00000000 </v>
   <v>      -0.47368421       0.05263158       0.00000000 </v>
   <v>      -0.42105263       0.05263158       0.00000000 </v>
   <v>      -0.36842105       0.05263158       0.00000000 </v>
   <v>      -0.31578947       0.05263158       0.00000000 </v>
   <v>      -0.26315789       0.05263158       0.00000000 </v>
   <v>      -0.21052632       0.05263158       0.00000000 </v>
   <v>      -0.15789474       0.05263158       0.00000000 </v>
   <v>      -0.10526316       0.05263158       0.00000000 </v>
   <v>      -0.05263158       0.05263158       0.00000000 </v>
   <v>       0.10526316       0.10526316       0.00000000 </v>
   <v>       0.15789474       0.10526316       0.00000000 </v>
   <v>       0.21052632       0.10526316       0.00000000 </v>
   <v>       0.26315789       0.10526316       0.00000000 </v>
   <v>       0.31578947       0.10526316       0.00000000 </v>
   <v>       0.36842105       0.10526316       0.00000000 </v>
   <v>       0.42105263       0.10526316       0.00000000 </v>
   <v>       0.47368421       0.10526316       0.00000000 </v>
   <v>      -0.47368421       0.10526316       0.00000000 </v>
   <v>      -0.42105263       0.10526316       0.00000000 </v>
   <v>      -0.36842105       0.10526316       0.00000000 </v>
   <v>      -0.31578947       0.10526316       0.00000000 </v>
   <v>      -0.26315789       0.10526316       0.00000000 </v>
   <v>      -0.21052632       0.10526316       0.00000000 </v>
   <v>      -0.15789474       0.10526316       0.00000000 </v>
   <v>      -0.10526316       0.10526316       0.00000000 </v>
   <v>       0.15789474       0.15789474       0.00000000 </v>
   <v>       0.21052632       0.15789474       0.00000000 </v>
   <v>       0.26315789       0.15789474       0.00000000 </v>
   <v>       0.31578947       0.15789474       0.00000000 </v>
   <v>       0.36842105       0.15789474       0.00000000 </v>
   <v>       0.42105263       0.15789474       0.00000000 </v>
   <v>       0.47368421       0.15789474       0.00000000 </v>
   <v>      -0.47368421       0.15789474       0.00000000 </v>
   <v>      -0.42105263       0.15789474       0.00000000 </v>
   <v>      -0.36842105       0.15789474       0.00000000 </v>
   <v>      -0.31578947       0.15789474       0.00000000 </v>
   <v>      -0.26315789       0.15789474       0.00000000 </v>
   <v>      -0.21052632       0.15789474       0.00000000 </v>
   <v>      -0.15789474       0.15789474       0.00000000 </v>
   <v>       0.21052632       0.21052632       0.00000000 </v>
   <v>       0.26315789       0.21052632       0.00000000 </v>
   <v>       0.31578947       0.21052632       0.00000000 </v>
   <v>       0.36842105       0.21052632       0.00000000 </v>
   <v>       0.42105263       0.21052632       0.00000000 </v>
   <v>       0.47368421       0.21052632       0.00000000 </v>
   <v>      -0.47368421       0.21052632       0.00000000 </v>
   <v>      -0.42105263       0.21052632       0.00000000 </v>
   <v>      -0.36842105       0.21052632       0.00000000 </v>
   <v>      -0.31578947       0.21052632       0.00000000 </v>
   <v>      -0.26315789       0.21052632       0.00000000 </v>
   <v>      -0.21052632       0.21052632       0.00000000 </v>
   <v>       0.26315789       0.26315789       0.00000000 </v>
   <v>       0.31578947       0.26315789       0.00000000 </v>
   <v>       0.36842105       0.26315789       0.00000000 </v>
   <v>       0.42105263       0.26315789       0.00000000 </v>
   <v>       0.47368421       0.26315789       0.00000000 </v>
   <v>      -0.47368421       0.26315789       0.00000000 </v>
   <v>      -0.42105263       0.26315789       0.00000000 </v>
   <v>      -0.36842105       0.26315789       0.00000000 </v>
   <v>      -0.31578947       0.26315789       0.00000000 </v>
   <v>      -0.26315789       0.26315789       0.00000000 </v>
   <v>       0.31578947       0.31578947       0.00000000 </v>
   <v>       0.36842105       0.31578947       0.00000000 </v>
   <v>       0.42105263       0.31578947       0.00000000 </v>
   <v>       0.47368421       0.31578947       0.00000000 </v>
   <v>      -0.47368421       0.31578947       0.00000000 </v>
   <v>      -0.42105263       0.31578947       0.00000000 </v>
   <v>      -0.36842105       0.31578947       0.00000000 </v>
   <v>      -0.31578947       0.31578947       0.00000000 </v>
   <v>       0.36842105       0.36842105       0.00000000 </v>
   <v>       0.42105263       0.36842105       0.00000000 </v>
   <v>       0.47368421       0.36842105       0.00000000 </v>
   <v>      -0.47368421       0.36842105       0.00000000 </v>
   <v>      -0.42105263       0.36842105       0.00000000 </v>
   <v>      -0.36842105       0.36842105       0.00000000 </v>
   <v>       0.42105263       0.42105263       0.00000000 </v>
   <v>       0.47368421       0.42105263       0.00000000 </v>
   <v>      -0.47368421       0.42105263       0.00000000 </v>
   <v>      -0.42105263       0.42105263       0.00000000 </v>
   <v>       0.47368421       0.47368421       0.00000000 </v>
   <v>      -0.47368421       0.47368421       0.00000000 </v>
   <v>       0.15789474       0.10526316       0.05263158 </v>
   <v>       0.21052632       0.10526316       0.05263158 </v>
   <v>       0.26315789       0.10526316       0.05263158 </v>
   <v>       0.31578947       0.10526316       0.05263158 </v>
   <v>       0.36842105       0.10526316       0.05263158 </v>
   <v>       0.42105263       0.10526316       0.05263158 </v>
   <v>       0.47368421       0.10526316       0.05263158 </v>
   <v>      -0.47368421       0.10526316       0.05263158 </v>
   <v>       0.21052632       0.15789474       0.05263158 </v>
   <v>       0.26315789       0.15789474       0.05263158 </v>
   <v>       0.31578947       0.15789474       0.05263158 </v>
   <v>       0.36842105       0.15789474       0.05263158 </v>
   <v>       0.42105263       0.15789474       0.05263158 </v>
   <v>       0.47368421       0.15789474       0.05263158 </v>
   <v>      -0.47368421       0.15789474       0.05263158 </v>
   <v>      -0.42105263       0.15789474       0.05263158 </v>
   <v>      -0.36842105       0.15789474       0.05263158 </v>
   <v>      -0.31578947       0.15789474       0.05263158 </v>
   <v>      -0.26315789       0.15789474       0.05263158 </v>
   <v>      -0.21052632       0.15789474       0.05263158 </v>
   <v>      -0.15789474       0.15789474       0.05263158 </v>
   <v>      -0.10526316       0.15789474       0.05263158 </v>
   <v>       0.26315789       0.21052632       0.05263158 </v>
   <v>       0.31578947       0.21052632       0.05263158 </v>
   <v>       0.36842105       0.21052632       0.05263158 </v>
   <v>       0.42105263       0.21052632       0.05263158 </v>
   <v>       0.47368421       0.21052632       0.05263158 </v>
   <v>      -0.47368421       0.21052632       0.05263158 </v>
   <v>      -0.42105263       0.21052632       0.05263158 </v>
   <v>      -0.36842105       0.21052632       0.05263158 </v>
   <v>      -0.31578947       0.21052632       0.05263158 </v>
   <v>      -0.26315789       0.21052632       0.05263158 </v>
   <v>      -0.21052632       0.21052632       0.05263158 </v>
   <v>      -0.15789474       0.21052632       0.05263158 </v>
   <v>       0.31578947       0.26315789       0.05263158 </v>
   <v>       0.36842105       0.26315789       0.05263158 </v>
   <v>       0.42105263       0.26315789       0.05263158 </v>
   <v>       0.47368421       0.26315789       0.05263158 </v>
   <v>      -0.47368421       0.26315789       0.05263158 </v>
   <v>      -0.42105263       0.26315789       0.05263158 </v>
   <v>      -0.36842105       0.26315789       0.05263158 </v>
   <v>      -0.31578947       0.26315789       0.05263158 </v>
   <v>      -0.26315789       0.26315789       0.05263158 </v>
   <v>      -0.21052632       0.26315789       0.05263158 </v>
   <v>       0.36842105       0.31578947       0.05263158 </v>
   <v>       0.42105263       0.31578947       0.05263158 </v>
   <v>       0.47368421       0.31578947       0.05263158 </v>
   <v>      -0.47368421       0.31578947       0.05263158 </v>
   <v>      -0.42105263       0.31578947       0.05263158 </v>
   <v>      -0.36842105       0.31578947       0.05263158 </v>
   <v>      -0.31578947       0.31578947       0.05263158 </v>
   <v>      -0.26315789       0.31578947       0.05263158 </v>
   <v>       0.42105263       0.36842105       0.05263158 </v>
   <v>       0.47368421       0.36842105       0.05263158 </v>
   <v>      -0.47368421       0.36842105       0.05263158 </v>
   <v>      -0.42105263       0.36842105       0.05263158 </v>
   <v>      -0.36842105       0.36842105       0.05263158 </v>
   <v>      -0.31578947       0.36842105       0.05263158 </v>
   <v>       0.47368421       0.42105263       0.05263158 </v>
   <v>      -0.47368421       0.42105263       0.05263158 </v>
   <v>      -0.42105263       0.42105263       0.05263158 </v>
   <v>      -0.36842105       0.42105263       0.05263158 </v>
   <v>      -0.47368421       0.47368421       0.05263158 </v>
   <v>      -0.42105263       0.47368421       0.05263158 </v>
   <v>       0.31578947       0.21052632       0.10526316 </v>
   <v>       0.36842105       0.21052632       0.10526316 </v>
   <v>       0.42105263       0.21052632       0.10526316 </v>
   <v>       0.47368421       0.21052632       0.10526316 </v>
   <v>      -0.47368421       0.21052632       0.10526316 </v>
   <v>      -0.42105263       0.21052632       0.10526316 </v>
   <v>       0.36842105       0.26315789       0.10526316 </v>
   <v>       0.42105263       0.26315789       0.10526316 </v>
   <v>       0.47368421       0.26315789       0.10526316 </v>
   <v>      -0.47368421       0.26315789       0.10526316 </v>
   <v>      -0.42105263       0.26315789       0.10526316 </v>
   <v>      -0.36842105       0.26315789       0.10526316 </v>
   <v>      -0.31578947       0.26315789       0.10526316 </v>
   <v>      -0.26315789       0.26315789       0.10526316 </v>
   <v>      -0.21052632       0.26315789       0.10526316 </v>
   <v>      -0.15789474       0.26315789       0.10526316 </v>
   <v>       0.42105263       0.31578947       0.10526316 </v>
   <v>       0.47368421       0.31578947       0.10526316 </v>
   <v>      -0.47368421       0.31578947       0.10526316 </v>
   <v>      -0.42105263       0.31578947       0.10526316 </v>
   <v>      -0.36842105       0.31578947       0.10526316 </v>
   <v>      -0.31578947       0.31578947       0.10526316 </v>
   <v>      -0.26315789       0.31578947       0.10526316 </v>
   <v>      -0.21052632       0.31578947       0.10526316 </v>
   <v>       0.47368421       0.36842105       0.10526316 </v>
   <v>      -0.47368421       0.36842105       0.10526316 </v>
   <v>      -0.42105263       0.36842105       0.10526316 </v>
   <v>      -0.36842105       0.36842105       0.10526316 </v>
   <v>      -0.31578947       0.36842105       0.10526316 </v>
   <v>      -0.26315789       0.36842105       0.10526316 </v>
   <v>      -0.47368421       0.42105263       0.10526316 </v>
   <v>      -0.42105263       0.42105263       0.10526316 </v>
   <v>      -0.36842105       0.42105263       0.10526316 </v>
   <v>      -0.31578947       0.42105263       0.10526316 </v>
   <v>      -0.42105263       0.47368421       0.10526316 </v>
   <v>      -0.36842105       0.47368421       0.10526316 </v>
   <v>       0.47368421       0.31578947       0.15789474 </v>
   <v>      -0.47368421       0.31578947       0.15789474 </v>
   <v>      -0.42105263       0.31578947       0.15789474 </v>
   <v>      -0.36842105       0.31578947       0.15789474 </v>
   <v>      -0.47368421       0.36842105       0.15789474 </v>
   <v>      -0.42105263       0.36842105       0.15789474 </v>
   <v>      -0.36842105       0.36842105       0.15789474 </v>
   <v>      -0.31578947       0.36842105       0.15789474 </v>
   <v>      -0.26315789       0.36842105       0.15789474 </v>
   <v>      -0.21052632       0.36842105       0.15789474 </v>
   <v>      -0.42105263       0.42105263       0.15789474 </v>
   <v>      -0.36842105       0.42105263       0.15789474 </v>
   <v>      -0.31578947       0.42105263       0.15789474 </v>
   <v>      -0.26315789       0.42105263       0.15789474 </v>
   <v>      -0.36842105       0.47368421       0.15789474 </v>
   <v>      -0.31578947       0.47368421       0.15789474 </v>
   <v>      -0.36842105       0.42105263       0.21052632 </v>
   <v>      -0.31578947       0.42105263       0.21052632 </v>
   <v>      -0.31578947       0.47368421       0.21052632 </v>
   <v>      -0.26315789       0.47368421       0.21052632 </v>
  </varray>
  <varray name="weights" >
   <v>       0.00014579 </v>
   <v>       0.00116635 </v>
   <v>       0.00116635 </v>
   <v>       0.00116635 </v>
   <v>       0.00116635 </v>
   <v>       0.00116635 </v>
   <v>       0.00116635 </v>
   <v>       0.00116635 </v>
   <v>       0.00116635 </v>
   <v>       0.00116635 </v>
   <v>       0.00087476 </v>
   <v>       0.00349905 </v>
   <v>       0.00349905 </v>
   <v>       0.00349905 </v>
   <v>       0.00349905 </v>
   <v>       0.00349905 </v>
   <v>       0.00349905 </v>
   <v>       0.00349905 </v>
   <v>       0.00349905 </v>
   <v>       0.00349905 </v>
   <v>       0.00349905 </v>
   <v>       0.00349905 </v>
   <v>       0.00349905 </v>
   <v>       0.00349905 </v>
   <v>       0.00349905 </v>
   <v>       0.00349905 </v>
   <v>       0.00349905 </v>
   <v>       0.00174953 </v>
   <v>       0.00087476 </v>
   <v>       0.00349905 </v>
   <v>       0.00349905 </v>
   <v>       0.00349905 </v>
   <v>       0.00349905 </v>
   <v>       0.00349905 </v>
   <v>       0.00349905 </v>
   <v>       0.00349905 </v>
   <v>       0.00349905 </v>
   <v>       0.00349905 </v>
   <v>       0.00349905 </v>
   <v>       0.00349905 </v>
   <v>       0.00349905 </v>
   <v>       0.00349905 </v>
   <v>       0.00349905 </v>
   <v>       0.00174953 </v>
   <v>       0.00087476 </v>
   <v>       0.00349905 </v>
   <v>       0.00349905 </v>
   <v>       0.00349905 </v>
   <v>       0.00349905 </v>
   <v>       0.00349905 </v>
   <v>       0.00349905 </v>
   <v>       0.00349905 </v>
   <v>       0.00349905 </v>
   <v>       0.00349905 </v>
   <v>       0.00349905 </v>
   <v>       0.00349905 </v>
   <v>       0.00349905 </v>
   <v>       0.00174953 </v>
   <v>       0.00087476 </v>
   <v>       0.00349905 </v>
   <v>       0.00349905 </v>
   <v>       0.00349905 </v>
   <v>       0.00349905 </v>
   <v>       0.00349905 </v>
   <v>       0.00349905 </v>
   <v>       0.00349905 </v>
   <v>       0.00349905 </v>
   <v>       0.00349905 </v>
   <v>       0.00349905 </v>
   <v>       0.00174953 </v>
   <v>       0.00087476 </v>
   <v>       0.00349905 </v>
   <v>       0.00349905 </v>
   <v>       0.00349905 </v>
   <v>       0.00349905 </v>
   <v>       0.00349905 </v>
   <v>       0.00349905 </v>
   <v>       0.00349905 </v>
   <v>       0.00349905 </v>
   <v>       0.00174953 </v>
   <v>       0.00087476 </v>
   <v>       0.00349905 </v>
   <v>       0.00349905 </v>
   <v>       0.00349905 </v>
   <v>       0.00349905 </v>
   <v>       0.00349905 </v>
   <v>       0.00349905 </v>
   <v>       0.00174953 </v>
   <v>       0.00087476 </v>
   <v>       0.00349905 </v>
   <v>       0.00349905 </v>
   <v>       0.00349905 </v>
   <v>       0.00349905 </v>
   <v>       0.00174953 </v>
   <v>       0.00087476 </v>
   <v>       0.00349905 </v>
   <v>       0.00349905 </v>
   <v>       0.00174953 </v>
   <v>       0.00087476 </v>
   <v>       0.00174953 </v>
   <v>       0.00349905 </v>
   <v>       0.00699810 </v>
   <v>       0.00699810 </v>
   <v>       0.00699810 </v>
   <v>       0.00699810 </v>
   <v>       0.00699810 </v>
   <v>       0.00699810 </v>
   <v>       0.00699810 </v>
   <v>       0.00349905 </v>
   <v>       0.00699810 </v>
   <v>       0.00699810 </v>
   <v>       0.00699810 </v>
   <v>       0.00699810 </v>
   <v>       0.00699810 </v>
   <v>       0.00699810 </v>
   <v>       0.00699810 </v>
   <v>       0.00699810 </v>
   <v>       0.00699810 </v>
   <v>       0.00699810 </v>
   <v>       0.00699810 </v>
   <v>       0.00699810 </v>
   <v>       0.00349905 </v>
   <v>       0.00349905 </v>
   <v>       0.00699810 </v>
   <v>       0.00699810 </v>
   <v>       0.00699810 </v>
   <v>       0.00699810 </v>
   <v>       0.00699810 </v>
   <v>       0.00699810 </v>
   <v>       0.00699810 </v>
   <v>       0.00699810 </v>
   <v>       0.00699810 </v>
   <v>       0.00699810 </v>
   <v>       0.00349905 </v>
   <v>       0.00349905 </v>
   <v>       0.00699810 </v>
   <v>       0.00699810 </v>
   <v>       0.00699810 </v>
   <v>       0.00699810 </v>
   <v>       0.00699810 </v>
   <v>       0.00699810 </v>
   <v>       0.00699810 </v>
   <v>       0.00699810 </v>
   <v>       0.00349905 </v>
   <v>       0.00349905 </v>
   <v>       0.00699810 </v>
   <v>       0.00699810 </v>
   <v>       0.00699810 </v>
   <v>       0.00699810 </v>
   <v>       0.00699810 </v>
   <v>       0.00699810 </v>
   <v>       0.00349905 </v>
   <v>       0.00349905 </v>
   <v>       0.00699810 </v>
   <v>       0.00699810 </v>
   <v>       0.00699810 </v>
   <v>       0.00699810 </v>
   <v>       0.00349905 </v>
   <v>       0.00349905 </v>
   <v>       0.00699810 </v>
   <v>       0.00699810 </v>
   <v>       0.00349905 </v>
   <v>       0.00349905 </v>
   <v>       0.00349905 </v>
   <v>       0.00349905 </v>
   <v>       0.00699810 </v>
   <v>       0.00699810 </v>
   <v>       0.00699810 </v>
   <v>       0.00699810 </v>
   <v>       0.00699810 </v>
   <v>       0.00349905 </v>
   <v>       0.00699810 </v>
   <v>       0.00699810 </v>
   <v>       0.00699810 </v>
   <v>       0.00699810 </v>
   <v>       0.00699810 </v>
   <v>       0.00699810 </v>
   <v>       0.00699810 </v>
   <v>       0.00699810 </v>
   <v>       0.00349905 </v>
   <v>       0.00349905 </v>
   <v>       0.00699810 </v>
   <v>       0.00699810 </v>
   <v>       0.00699810 </v>
   <v>       0.00699810 </v>
   <v>       0.00699810 </v>
   <v>       0.00699810 </v>
   <v>       0.00349905 </v>
   <v>       0.00349905 </v>
   <v>       0.00699810 </v>
   <v>       0.00699810 </v>
   <v>       0.00699810 </v>
   <v>       0.00699810 </v>
   <v>       0.00349905 </v>
   <v>       0.00349905 </v>
   <v>       0.00699810 </v>
   <v>       0.00699810 </v>
   <v>       0.00349905 </v>
   <v>       0.00349905 </v>
   <v>       0.00349905 </v>
   <v>       0.00349905 </v>
   <v>       0.00699810 </v>
   <v>       0.00699810 </v>
   <v>       0.00699810 </v>
   <v>       0.00349905 </v>
   <v>       0.00699810 </v>
   <v>       0.00699810 </v>
   <v>       0.00699810 </v>
   <v>       0.00699810 </v>
   <v>       0.00349905 </v>
   <v>       0.00349905 </v>
   <v>       0.00699810 </v>
   <v>       0.00699810 </v>
   <v>       0.00349905 </v>
   <v>       0.00349905 </v>
   <v>       0.00349905 </v>
   <v>       0.00349905 </v>
   <v>       0.00699810 </v>
   <v>       0.00349905 </v>
   <v>       0.00349905 </v>
  </varray>
  <varray name="tetrahedronlist"  type="int" >
   <v type="int" >       24        1        2        2       11 </v>
   <v type="int" >       48        2       11       12       28 </v>
   <v type="int" >       48        2        3       12       28 </v>
   <v type="int" >       24        2        2       11       28 </v>
   <v type="int" >       48        3       12       13       27 </v>
   <v type="int" >       48        3        4       13       27 </v>
   <v type="int" >       48        3       12       27       28 </v>
   <v type="int" >       48        4       13       14       26 </v>
   <v type="int" >       48        4        5       14       26 </v>
   <v type="int" >       48        4       13       26       27 </v>
   <v type="int" >       48        5       14       15       25 </v>
   <v type="int" >       48        5        6       15       25 </v>
   <v type="int" >       48        5       14       25       26 </v>
   <v type="int" >       48        6       15       16       24 </v>
   <v type="int" >       48        6        7       16       24 </v>
   <v type="int" >       48        6       15       24       25 </v>
   <v type="int" >       48        7       16       17       23 </v>
   <v type="int" >       48        7        8       17       23 </v>
   <v type="int" >       48        7       16       23       24 </v>
   <v type="int" >       48        8       17       18       22 </v>
   <v type="int" >       48        8        9       18       22 </v>
   <v type="int" >       48        8       17       22       23 </v>
   <v type="int" >       48        9       18       19       21 </v>
   <v type="int" >       48        9       10       19       21 </v>
   <v type="int" >       48        9       18       21       22 </v>
   <v type="int" >       48       10       19       20       20 </v>
   <v type="int" >       24       10       10       20       20 </v>
   <v type="int" >       48       10       19       20       21 </v>
   <v type="int" >       24       11       12       12       29 </v>
   <v type="int" >       24       11       12       12       28 </v>
   <v type="int" >       48       12       29       30      101 </v>
   <v type="int" >       48       12       13       30      101 </v>
   <v type="int" >       48       12       13       27      101 </v>
   <v type="int" >       24       12       12       29      101 </v>
   <v type="int" >       24       12       12       28      101 </v>
   <v type="int" >       48       12       27       28      101 </v>
   <v type="int" >       48       13       30       31      102 </v>
   <v type="int" >       48       13       14       31      102 </v>
   <v type="int" >       48       13       14       26      102 </v>
   <v type="int" >       48       13       30      101      102 </v>
   <v type="int" >       48       13       27      101      102 </v>
   <v type="int" >       48       13       26       27      102 </v>
   <v type="int" >       48       14       31       32      103 </v>
   <v type="int" >       48       14       15       32      103 </v>
   <v type="int" >       48       14       15       25      103 </v>
   <v type="int" >       48       14       31      102      103 </v>
   <v type="int" >       48       14       26      102      103 </v>
   <v type="int" >       48       14       25       26      103 </v>
   <v type="int" >       48       15       32       33      104 </v>
   <v type="int" >       48       15       16       33      104 </v>
   <v type="int" >       48       15       16       24      104 </v>
   <v type="int" >       48       15       32      103      104 </v>
   <v type="int" >       48       15       25      103      104 </v>
   <v type="int" >       48       15       24       25      104 </v>
   <v type="int" >       48       16       33       34      105 </v>
   <v type="int" >       48       16       17       34      105 </v>
   <v type="int" >       48       16       17       23      105 </v>
   <v type="int" >       48       16       33      104      105 </v>
   <v type="int" >       48       16       24      104      105 </v>
   <v type="int" >       48       16       23       24      105 </v>
   <v type="int" >       48       17       34       35      106 </v>
   <v type="int" >       48       17       18       35      106 </v>
   <v type="int" >       48       17       18       22      106 </v>
   <v type="int" >       48       17       34      105      106 </v>
   <v type="int" >       48       17       23      105      106 </v>
   <v type="int" >       48       17       22       23      106 </v>
   <v type="int" >       48       18       35       36      107 </v>
   <v type="int" >       48       18       19       36      107 </v>
   <v type="int" >       48       18       19       21      107 </v>
   <v type="int" >       48       18       35      106      107 </v>
   <v type="int" >       48       18       22      106      107 </v>
   <v type="int" >       48       18       21       22      107 </v>
   <v type="int" >       48       19       36       37      108 </v>
   <v type="int" >       48       19       20       37      108 </v>
   <v type="int" >       48       19       20       20      108 </v>
   <v type="int" >       48       19       36      107      108 </v>
   <v type="int" >       48       19       21      107      108 </v>
   <v type="int" >       48       19       20       21      108 </v>
   <v type="int" >       48       20       37       38      108 </v>
   <v type="int" >       48       20       21       38      108 </v>
   <v type="int" >       48       20       37      108      108 </v>
   <v type="int" >       24       20       20      108      108 </v>
   <v type="int" >       48       21       38       39      107 </v>
   <v type="int" >       48       21       22       39      107 </v>
   <v type="int" >       48       21       38      107      108 </v>
   <v type="int" >       48       22       39       40      106 </v>
   <v type="int" >       48       22       23       40      106 </v>
   <v type="int" >       48       22       39      106      107 </v>
   <v type="int" >       48       23       40       41      105 </v>
   <v type="int" >       48       23       24       41      105 </v>
   <v type="int" >       48       23       40      105      106 </v>
   <v type="int" >       48       24       41       42      104 </v>
   <v type="int" >       48       24       25       42      104 </v>
   <v type="int" >       48       24       41      104      105 </v>
   <v type="int" >       48       25       42       43      103 </v>
   <v type="int" >       48       25       26       43      103 </v>
   <v type="int" >       48       25       42      103      104 </v>
   <v type="int" >       48       26       43       44      102 </v>
   <v type="int" >       48       26       27       44      102 </v>
   <v type="int" >       48       26       43      102      103 </v>
   <v type="int" >       24       27       27       44      101 </v>
   <v type="int" >       24       27       27       28      101 </v>
   <v type="int" >       48       27       44      101      102 </v>
   <v type="int" >       24       29       30       30       45 </v>
   <v type="int" >       24       29       30       30      101 </v>
   <v type="int" >       48       30       45       46      109 </v>
   <v type="int" >       48       30       31       46      109 </v>
   <v type="int" >       48       30       31      102      109 </v>
   <v type="int" >       24       30       30       45      109 </v>
   <v type="int" >       24       30       30      101      109 </v>
   <v type="int" >       48       30      101      102      109 </v>
   <v type="int" >       48       31       46       47      110 </v>
   <v type="int" >       48       31       32       47      110 </v>
   <v type="int" >       48       31       32      103      110 </v>
   <v type="int" >       48       31       46      109      110 </v>
   <v type="int" >       48       31      102      109      110 </v>
   <v type="int" >       48       31      102      103      110 </v>
   <v type="int" >       48       32       47       48      111 </v>
   <v type="int" >       48       32       33       48      111 </v>
   <v type="int" >       48       32       33      104      111 </v>
   <v type="int" >       48       32       47      110      111 </v>
   <v type="int" >       48       32      103      110      111 </v>
   <v type="int" >       48       32      103      104      111 </v>
   <v type="int" >       48       33       48       49      112 </v>
   <v type="int" >       48       33       34       49      112 </v>
   <v type="int" >       48       33       34      105      112 </v>
   <v type="int" >       48       33       48      111      112 </v>
   <v type="int" >       48       33      104      111      112 </v>
   <v type="int" >       48       33      104      105      112 </v>
   <v type="int" >       48       34       49       50      113 </v>
   <v type="int" >       48       34       35       50      113 </v>
   <v type="int" >       48       34       35      106      113 </v>
   <v type="int" >       48       34       49      112      113 </v>
   <v type="int" >       48       34      105      112      113 </v>
   <v type="int" >       48       34      105      106      113 </v>
   <v type="int" >       48       35       50       51      114 </v>
   <v type="int" >       48       35       36       51      114 </v>
   <v type="int" >       48       35       36      107      114 </v>
   <v type="int" >       48       35       50      113      114 </v>
   <v type="int" >       48       35      106      113      114 </v>
   <v type="int" >       48       35      106      107      114 </v>
   <v type="int" >       48       36       51       52      115 </v>
   <v type="int" >       48       36       37       52      115 </v>
   <v type="int" >       48       36       37      108      115 </v>
   <v type="int" >       48       36       51      114      115 </v>
   <v type="int" >       48       36      107      114      115 </v>
   <v type="int" >       48       36      107      108      115 </v>
   <v type="int" >       48       37       52       53      116 </v>
   <v type="int" >       48       37       38       53      116 </v>
   <v type="int" >       48       37       38      108      116 </v>
   <v type="int" >       48       37       52      115      116 </v>
   <v type="int" >       48       37      108      115      116 </v>
   <v type="int" >       48       37      108      108      116 </v>
   <v type="int" >       48       38       53       54      117 </v>
   <v type="int" >       48       38       39       54      117 </v>
   <v type="int" >       48       38       39      107      117 </v>
   <v type="int" >       48       38       53      116      117 </v>
   <v type="int" >       48       38      108      116      117 </v>
   <v type="int" >       48       38      107      108      117 </v>
   <v type="int" >       48       39       54       55      118 </v>
   <v type="int" >       48       39       40       55      118 </v>
   <v type="int" >       48       39       40      106      118 </v>
   <v type="int" >       48       39       54      117      118 </v>
   <v type="int" >       48       39      107      117      118 </v>
   <v type="int" >       48       39      106      107      118 </v>
   <v type="int" >       48       40       55       56      119 </v>
   <v type="int" >       48       40       41       56      119 </v>
   <v type="int" >       48       40       41      105      119 </v>
   <v type="int" >       48       40       55      118      119 </v>
   <v type="int" >       48       40      106      118      119 </v>
   <v type="int" >       48       40      105      106      119 </v>
   <v type="int" >       48       41       56       57      120 </v>
   <v type="int" >       48       41       42       57      120 </v>
   <v type="int" >       48       41       42      104      120 </v>
   <v type="int" >       48       41       56      119      120 </v>
   <v type="int" >       48       41      105      119      120 </v>
   <v type="int" >       48       41      104      105      120 </v>
   <v type="int" >       48       42       57       58      121 </v>
   <v type="int" >       48       42       43       58      121 </v>
   <v type="int" >       48       42       43      103      121 </v>
   <v type="int" >       48       42       57      120      121 </v>
   <v type="int" >       48       42      104      120      121 </v>
   <v type="int" >       48       42      103      104      121 </v>
   <v type="int" >       24       43       43       58      122 </v>
   <v type="int" >       24       43       43       44      122 </v>
   <v type="int" >       48       43       44      102      122 </v>
   <v type="int" >       48       43       58      121      122 </v>
   <v type="int" >       48       43      103      121      122 </v>
   <v type="int" >       48       43      102      103      122 </v>
   <v type="int" >       24       44      102      102      122 </v>
   <v type="int" >       24       44      101      102      102 </v>
   <v type="int" >       24       45       46       46       59 </v>
   <v type="int" >       24       45       46       46      109 </v>
   <v type="int" >       48       46       59       60      123 </v>
   <v type="int" >       48       46       47       60      123 </v>
   <v type="int" >       48       46       47      110      123 </v>
   <v type="int" >       24       46       46       59      123 </v>
   <v type="int" >       24       46       46      109      123 </v>
   <v type="int" >       48       46      109      110      123 </v>
   <v type="int" >       48       47       60       61      124 </v>
   <v type="int" >       48       47       48       61      124 </v>
   <v type="int" >       48       47       48      111      124 </v>
   <v type="int" >       48       47       60      123      124 </v>
   <v type="int" >       48       47      110      123      124 </v>
   <v type="int" >       48       47      110      111      124 </v>
   <v type="int" >       48       48       61       62      125 </v>
   <v type="int" >       48       48       49       62      125 </v>
   <v type="int" >       48       48       49      112      125 </v>
   <v type="int" >       48       48       61      124      125 </v>
   <v type="int" >       48       48      111      124      125 </v>
   <v type="int" >       48       48      111      112      125 </v>
   <v type="int" >       48       49       62       63      126 </v>
   <v type="int" >       48       49       50       63      126 </v>
   <v type="int" >       48       49       50      113      126 </v>
   <v type="int" >       48       49       62      125      126 </v>
   <v type="int" >       48       49      112      125      126 </v>
   <v type="int" >       48       49      112      113      126 </v>
   <v type="int" >       48       50       63       64      127 </v>
   <v type="int" >       48       50       51       64      127 </v>
   <v type="int" >       48       50       51      114      127 </v>
   <v type="int" >       48       50       63      126      127 </v>
   <v type="int" >       48       50      113      126      127 </v>
   <v type="int" >       48       50      113      114      127 </v>
   <v type="int" >       48       51       64       65      128 </v>
   <v type="int" >       48       51       52       65      128 </v>
   <v type="int" >       48       51       52      115      128 </v>
   <v type="int" >       48       51       64      127      128 </v>
   <v type="int" >       48       51      114      127      128 </v>
   <v type="int" >       48       51      114      115      128 </v>
   <v type="int" >       48       52       65       66      129 </v>
   <v type="int" >       48       52       53       66      129 </v>
   <v type="int" >       48       52       53      116      129 </v>
   <v type="int" >       48       52       65      128      129 </v>
   <v type="int" >       48       52      115      128      129 </v>
   <v type="int" >       48       52      115      116      129 </v>
   <v type="int" >       48       53       66       67      130 </v>
   <v type="int" >       48       53       54       67      130 </v>
   <v type="int" >       48       53       54      117      130 </v>
   <v type="int" >       48       53       66      129      130 </v>
   <v type="int" >       48       53      116      129      130 </v>
   <v type="int" >       48       53      116      117      130 </v>
   <v type="int" >       48       54       67       68      131 </v>
   <v type="int" >       48       54       55       68      131 </v>
   <v type="int" >       48       54       55      118      131 </v>
   <v type="int" >       48       54       67      130      131 </v>
   <v type="int" >       48       54      117      130      131 </v>
   <v type="int" >       48       54      117      118      131 </v>
   <v type="int" >       48       55       68       69      132 </v>
   <v type="int" >       48       55       56       69      132 </v>
   <v type="int" >       48       55       56      119      132 </v>
   <v type="int" >       48       55       68      131      132 </v>
   <v type="int" >       48       55      118      131      132 </v>
   <v type="int" >       48       55      118      119      132 </v>
   <v type="int" >       48       56       69       70      133 </v>
   <v type="int" >       48       56       57       70      133 </v>
   <v type="int" >       48       56       57      120      133 </v>
   <v type="int" >       48       56       69      132      133 </v>
   <v type="int" >       48       56      119      132      133 </v>
   <v type="int" >       48       56      119      120      133 </v>
   <v type="int" >       24       57       57       70      134 </v>
   <v type="int" >       24       57       57       58      134 </v>
   <v type="int" >       48       57       58      121      134 </v>
   <v type="int" >       48       57       70      133      134 </v>
   <v type="int" >       48       57      120      133      134 </v>
   <v type="int" >       48       57      120      121      134 </v>
   <v type="int" >       24       58      121      121      134 </v>
   <v type="int" >       24       58      121      121      122 </v>
   <v type="int" >       24       59       60       60       71 </v>
   <v type="int" >       24       59       60       60      123 </v>
   <v type="int" >       48       60       71       72      135 </v>
   <v type="int" >       48       60       61       72      135 </v>
   <v type="int" >       48       60       61      124      135 </v>
   <v type="int" >       24       60       60       71      135 </v>
   <v type="int" >       24       60       60      123      135 </v>
   <v type="int" >       48       60      123      124      135 </v>
   <v type="int" >       48       61       72       73      136 </v>
   <v type="int" >       48       61       62       73      136 </v>
   <v type="int" >       48       61       62      125      136 </v>
   <v type="int" >       48       61       72      135      136 </v>
   <v type="int" >       48       61      124      135      136 </v>
   <v type="int" >       48       61      124      125      136 </v>
   <v type="int" >       48       62       73       74      137 </v>
   <v type="int" >       48       62       63       74      137 </v>
   <v type="int" >       48       62       63      126      137 </v>
   <v type="int" >       48       62       73      136      137 </v>
   <v type="int" >       48       62      125      136      137 </v>
   <v type="int" >       48       62      125      126      137 </v>
   <v type="int" >       48       63       74       75      138 </v>
   <v type="int" >       48       63       64       75      138 </v>
   <v type="int" >       48       63       64      127      138 </v>
   <v type="int" >       48       63       74      137      138 </v>
   <v type="int" >       48       63      126      137      138 </v>
   <v type="int" >       48       63      126      127      138 </v>
   <v type="int" >       48       64       75       76      139 </v>
   <v type="int" >       48       64       65       76      139 </v>
   <v type="int" >       48       64       65      128      139 </v>
   <v type="int" >       48       64       75      138      139 </v>
   <v type="int" >       48       64      127      138      139 </v>
   <v type="int" >       48       64      127      128      139 </v>
   <v type="int" >       48       65       76       77      140 </v>
   <v type="int" >       48       65       66       77      140 </v>
   <v type="int" >       48       65       66      129      140 </v>
   <v type="int" >       48       65       76      139      140 </v>
   <v type="int" >       48       65      128      139      140 </v>
   <v type="int" >       48       65      128      129      140 </v>
   <v type="int" >       48       66       77       78      141 </v>
   <v type="int" >       48       66       67       78      141 </v>
   <v type="int" >       48       66       67      130      141 </v>
   <v type="int" >       48       66       77      140      141 </v>
   <v type="int" >       48       66      129      140      141 </v>
   <v type="int" >       48       66      129      130      141 </v>
   <v type="int" >       48       67       78       79      142 </v>
   <v type="int" >       48       67       68       79      142 </v>
   <v type="int" >       48       67       68      131      142 </v>
   <v type="int" >       48       67       78      141      142 </v>
   <v type="int" >       48       67      130      141      142 </v>
   <v type="int" >       48       67      130      131      142 </v>
   <v type="int" >       48       68       79       80      143 </v>
   <v type="int" >       48       68       69       80      143 </v>
   <v type="int" >       48       68       69      132      143 </v>
   <v type="int" >       48       68       79      142      143 </v>
   <v type="int" >       48       68      131      142      143 </v>
   <v type="int" >       48       68      131      132      143 </v>
   <v type="int" >       24       69       69       80      144 </v>
   <v type="int" >       24       69       69       70      144 </v>
   <v type="int" >       48       69       70      133      144 </v>
   <v type="int" >       48       69       80      143      144 </v>
   <v type="int" >       48       69      132      143      144 </v>
   <v type="int" >       48       69      132      133      144 </v>
   <v type="int" >       24       70      133      133      144 </v>
   <v type="int" >       24       70      133      133      134 </v>
   <v type="int" >       24       71       72       72       81 </v>
   <v type="int" >       24       71       72       72      135 </v>
   <v type="int" >       48       72       81       82      145 </v>
   <v type="int" >       48       72       73       82      145 </v>
   <v type="int" >       48       72       73      136      145 </v>
   <v type="int" >       24       72       72       81      145 </v>
   <v type="int" >       24       72       72      135      145 </v>
   <v type="int" >       48       72      135      136      145 </v>
   <v type="int" >       48       73       82       83      146 </v>
   <v type="int" >       48       73       74       83      146 </v>
   <v type="int" >       48       73       74      137      146 </v>
   <v type="int" >       48       73       82      145      146 </v>
   <v type="int" >       48       73      136      145      146 </v>
   <v type="int" >       48       73      136      137      146 </v>
   <v type="int" >       48       74       83       84      147 </v>
   <v type="int" >       48       74       75       84      147 </v>
   <v type="int" >       48       74       75      138      147 </v>
   <v type="int" >       48       74       83      146      147 </v>
   <v type="int" >       48       74      137      146      147 </v>
   <v type="int" >       48       74      137      138      147 </v>
   <v type="int" >       48       75       84       85      148 </v>
   <v type="int" >       48       75       76       85      148 </v>
   <v type="int" >       48       75       76      139      148 </v>
   <v type="int" >       48       75       84      147      148 </v>
   <v type="int" >       48       75      138      147      148 </v>
   <v type="int" >       48       75      138      139      148 </v>
   <v type="int" >       48       76       85       86      149 </v>
   <v type="int" >       48       76       77       86      149 </v>
   <v type="int" >       48       76       77      140      149 </v>
   <v type="int" >       48       76       85      148      149 </v>
   <v type="int" >       48       76      139      148      149 </v>
   <v type="int" >       48       76      139      140      149 </v>
   <v type="int" >       48       77       86       87      150 </v>
   <v type="int" >       48       77       78       87      150 </v>
   <v type="int" >       48       77       78      141      150 </v>
   <v type="int" >       48       77       86      149      150 </v>
   <v type="int" >       48       77      140      149      150 </v>
   <v type="int" >       48       77      140      141      150 </v>
   <v type="int" >       48       78       87       88      151 </v>
   <v type="int" >       48       78       79       88      151 </v>
   <v type="int" >       48       78       79      142      151 </v>
   <v type="int" >       48       78       87      150      151 </v>
   <v type="int" >       48       78      141      150      151 </v>
   <v type="int" >       48       78      141      142      151 </v>
   <v type="int" >       24       79       79       88      152 </v>
   <v type="int" >       24       79       79       80      152 </v>
   <v type="int" >       48       79       80      143      152 </v>
   <v type="int" >       48       79       88      151      152 </v>
   <v type="int" >       48       79      142      151      152 </v>
   <v type="int" >       48       79      142      143      152 </v>
   <v type="int" >       24       80      143      143      152 </v>
   <v type="int" >       24       80      143      143      144 </v>
   <v type="int" >       24       81       82       82       89 </v>
   <v type="int" >       24       81       82       82      145 </v>
   <v type="int" >       48       82       89       90      153 </v>
   <v type="int" >       48       82       83       90      153 </v>
   <v type="int" >       48       82       83      146      153 </v>
   <v type="int" >       24       82       82       89      153 </v>
   <v type="int" >       24       82       82      145      153 </v>
   <v type="int" >       48       82      145      146      153 </v>
   <v type="int" >       48       83       90       91      154 </v>
   <v type="int" >       48       83       84       91      154 </v>
   <v type="int" >       48       83       84      147      154 </v>
   <v type="int" >       48       83       90      153      154 </v>
   <v type="int" >       48       83      146      153      154 </v>
   <v type="int" >       48       83      146      147      154 </v>
   <v type="int" >       48       84       91       92      155 </v>
   <v type="int" >       48       84       85       92      155 </v>
   <v type="int" >       48       84       85      148      155 </v>
   <v type="int" >       48       84       91      154      155 </v>
   <v type="int" >       48       84      147      154      155 </v>
   <v type="int" >       48       84      147      148      155 </v>
   <v type="int" >       48       85       92       93      156 </v>
   <v type="int" >       48       85       86       93      156 </v>
   <v type="int" >       48       85       86      149      156 </v>
   <v type="int" >       48       85       92      155      156 </v>
   <v type="int" >       48       85      148      155      156 </v>
   <v type="int" >       48       85      148      149      156 </v>
   <v type="int" >       48       86       93       94      157 </v>
   <v type="int" >       48       86       87       94      157 </v>
   <v type="int" >       48       86       87      150      157 </v>
   <v type="int" >       48       86       93      156      157 </v>
   <v type="int" >       48       86      149      156      157 </v>
   <v type="int" >       48       86      149      150      157 </v>
   <v type="int" >       24       87       87       94      158 </v>
   <v type="int" >       24       87       87       88      158 </v>
   <v type="int" >       48       87       88      151      158 </v>
   <v type="int" >       48       87       94      157      158 </v>
   <v type="int" >       48       87      150      157      158 </v>
   <v type="int" >       48       87      150      151      158 </v>
   <v type="int" >       24       88      151      151      158 </v>
   <v type="int" >       24       88      151      151      152 </v>
   <v type="int" >       24       89       90       90       95 </v>
   <v type="int" >       24       89       90       90      153 </v>
   <v type="int" >       48       90       95       96      159 </v>
   <v type="int" >       48       90       91       96      159 </v>
   <v type="int" >       48       90       91      154      159 </v>
   <v type="int" >       24       90       90       95      159 </v>
   <v type="int" >       24       90       90      153      159 </v>
   <v type="int" >       48       90      153      154      159 </v>
   <v type="int" >       48       91       96       97      160 </v>
   <v type="int" >       48       91       92       97      160 </v>
   <v type="int" >       48       91       92      155      160 </v>
   <v type="int" >       48       91       96      159      160 </v>
   <v type="int" >       48       91      154      159      160 </v>
   <v type="int" >       48       91      154      155      160 </v>
   <v type="int" >       48       92       97       98      161 </v>
   <v type="int" >       48       92       93       98      161 </v>
   <v type="int" >       48       92       93      156      161 </v>
   <v type="int" >       48       92       97      160      161 </v>
   <v type="int" >       48       92      155      160      161 </v>
   <v type="int" >       48       92      155      156      161 </v>
   <v type="int" >       24       93       93       98      162 </v>
   <v type="int" >       24       93       93       94      162 </v>
   <v type="int" >       48       93       94      157      162 </v>
   <v type="int" >       48       93       98      161      162 </v>
   <v type="int" >       48       93      156      161      162 </v>
   <v type="int" >       48       93      156      157      162 </v>
   <v type="int" >       24       94      157      157      162 </v>
   <v type="int" >       24       94      157      157      158 </v>
   <v type="int" >       24       95       96       96       99 </v>
   <v type="int" >       24       95       96       96      159 </v>
   <v type="int" >       48       96       99      100      163 </v>
   <v type="int" >       48       96       97      100      163 </v>
   <v type="int" >       48       96       97      160      163 </v>
   <v type="int" >       24       96       96       99      163 </v>
   <v type="int" >       24       96       96      159      163 </v>
   <v type="int" >       48       96      159      160      163 </v>
   <v type="int" >       24       97       97      100      164 </v>
   <v type="int" >       24       97       97       98      164 </v>
   <v type="int" >       48       97       98      161      164 </v>
   <v type="int" >       48       97      100      163      164 </v>
   <v type="int" >       48       97      160      163      164 </v>
   <v type="int" >       48       97      160      161      164 </v>
   <v type="int" >       24       98      161      161      164 </v>
   <v type="int" >       24       98      161      161      162 </v>
   <v type="int" >       12       99       99      100      100 </v>
   <v type="int" >       24       99      100      100      163 </v>
   <v type="int" >       12      100      100      163      163 </v>
   <v type="int" >       24      100      163      163      164 </v>
   <v type="int" >       24      101      102      102      109 </v>
   <v type="int" >       48      102      109      110      122 </v>
   <v type="int" >       48      102      103      110      122 </v>
   <v type="int" >       24      102      102      109      122 </v>
   <v type="int" >       48      103      110      111      121 </v>
   <v type="int" >       48      103      104      111      121 </v>
   <v type="int" >       48      103      110      121      122 </v>
   <v type="int" >       48      104      111      112      120 </v>
   <v type="int" >       48      104      105      112      120 </v>
   <v type="int" >       48      104      111      120      121 </v>
   <v type="int" >       48      105      112      113      119 </v>
   <v type="int" >       48      105      106      113      119 </v>
   <v type="int" >       48      105      112      119      120 </v>
   <v type="int" >       48      106      113      114      118 </v>
   <v type="int" >       48      106      107      114      118 </v>
   <v type="int" >       48      106      113      118      119 </v>
   <v type="int" >       48      107      114      115      117 </v>
   <v type="int" >       48      107      108      115      117 </v>
   <v type="int" >       48      107      114      117      118 </v>
   <v type="int" >       48      108      115      116      116 </v>
   <v type="int" >       24      108      108      116      116 </v>
   <v type="int" >       48      108      115      116      117 </v>
   <v type="int" >       24      109      110      110      123 </v>
   <v type="int" >       24      109      110      110      122 </v>
   <v type="int" >       48      110      123      124      165 </v>
   <v type="int" >       48      110      111      124      165 </v>
   <v type="int" >       48      110      111      121      165 </v>
   <v type="int" >       24      110      110      123      165 </v>
   <v type="int" >       24      110      110      122      165 </v>
   <v type="int" >       48      110      121      122      165 </v>
   <v type="int" >       48      111      124      125      166 </v>
   <v type="int" >       48      111      112      125      166 </v>
   <v type="int" >       48      111      112      120      166 </v>
   <v type="int" >       48      111      124      165      166 </v>
   <v type="int" >       48      111      121      165      166 </v>
   <v type="int" >       48      111      120      121      166 </v>
   <v type="int" >       48      112      125      126      167 </v>
   <v type="int" >       48      112      113      126      167 </v>
   <v type="int" >       48      112      113      119      167 </v>
   <v type="int" >       48      112      125      166      167 </v>
   <v type="int" >       48      112      120      166      167 </v>
   <v type="int" >       48      112      119      120      167 </v>
   <v type="int" >       48      113      126      127      168 </v>
   <v type="int" >       48      113      114      127      168 </v>
   <v type="int" >       48      113      114      118      168 </v>
   <v type="int" >       48      113      126      167      168 </v>
   <v type="int" >       48      113      119      167      168 </v>
   <v type="int" >       48      113      118      119      168 </v>
   <v type="int" >       48      114      127      128      169 </v>
   <v type="int" >       48      114      115      128      169 </v>
   <v type="int" >       48      114      115      117      169 </v>
   <v type="int" >       48      114      127      168      169 </v>
   <v type="int" >       48      114      118      168      169 </v>
   <v type="int" >       48      114      117      118      169 </v>
   <v type="int" >       48      115      128      129      170 </v>
   <v type="int" >       48      115      116      129      170 </v>
   <v type="int" >       48      115      116      116      170 </v>
   <v type="int" >       48      115      128      169      170 </v>
   <v type="int" >       48      115      117      169      170 </v>
   <v type="int" >       48      115      116      117      170 </v>
   <v type="int" >       48      116      129      130      170 </v>
   <v type="int" >       48      116      117      130      170 </v>
   <v type="int" >       48      116      129      170      170 </v>
   <v type="int" >       24      116      116      170      170 </v>
   <v type="int" >       48      117      130      131      169 </v>
   <v type="int" >       48      117      118      131      169 </v>
   <v type="int" >       48      117      130      169      170 </v>
   <v type="int" >       48      118      131      132      168 </v>
   <v type="int" >       48      118      119      132      168 </v>
   <v type="int" >       48      118      131      168      169 </v>
   <v type="int" >       48      119      132      133      167 </v>
   <v type="int" >       48      119      120      133      167 </v>
   <v type="int" >       48      119      132      167      168 </v>
   <v type="int" >       48      120      133      134      166 </v>
   <v type="int" >       48      120      121      134      166 </v>
   <v type="int" >       48      120      133      166      167 </v>
   <v type="int" >       24      121      121      134      165 </v>
   <v type="int" >       24      121      121      122      165 </v>
   <v type="int" >       48      121      134      165      166 </v>
   <v type="int" >       24      123      124      124      135 </v>
   <v type="int" >       24      123      124      124      165 </v>
   <v type="int" >       48      124      135      136      171 </v>
   <v type="int" >       48      124      125      136      171 </v>
   <v type="int" >       48      124      125      166      171 </v>
   <v type="int" >       24      124      124      135      171 </v>
   <v type="int" >       24      124      124      165      171 </v>
   <v type="int" >       48      124      165      166      171 </v>
   <v type="int" >       48      125      136      137      172 </v>
   <v type="int" >       48      125      126      137      172 </v>
   <v type="int" >       48      125      126      167      172 </v>
   <v type="int" >       48      125      136      171      172 </v>
   <v type="int" >       48      125      166      171      172 </v>
   <v type="int" >       48      125      166      167      172 </v>
   <v type="int" >       48      126      137      138      173 </v>
   <v type="int" >       48      126      127      138      173 </v>
   <v type="int" >       48      126      127      168      173 </v>
   <v type="int" >       48      126      137      172      173 </v>
   <v type="int" >       48      126      167      172      173 </v>
   <v type="int" >       48      126      167      168      173 </v>
   <v type="int" >       48      127      138      139      174 </v>
   <v type="int" >       48      127      128      139      174 </v>
   <v type="int" >       48      127      128      169      174 </v>
   <v type="int" >       48      127      138      173      174 </v>
   <v type="int" >       48      127      168      173      174 </v>
   <v type="int" >       48      127      168      169      174 </v>
   <v type="int" >       48      128      139      140      175 </v>
   <v type="int" >       48      128      129      140      175 </v>
   <v type="int" >       48      128      129      170      175 </v>
   <v type="int" >       48      128      139      174      175 </v>
   <v type="int" >       48      128      169      174      175 </v>
   <v type="int" >       48      128      169      170      175 </v>
   <v type="int" >       48      129      140      141      176 </v>
   <v type="int" >       48      129      130      141      176 </v>
   <v type="int" >       48      129      130      170      176 </v>
   <v type="int" >       48      129      140      175      176 </v>
   <v type="int" >       48      129      170      175      176 </v>
   <v type="int" >       48      129      170      170      176 </v>
   <v type="int" >       48      130      141      142      177 </v>
   <v type="int" >       48      130      131      142      177 </v>
   <v type="int" >       48      130      131      169      177 </v>
   <v type="int" >       48      130      141      176      177 </v>
   <v type="int" >       48      130      170      176      177 </v>
   <v type="int" >       48      130      169      170      177 </v>
   <v type="int" >       48      131      142      143      178 </v>
   <v type="int" >       48      131      132      143      178 </v>
   <v type="int" >       48      131      132      168      178 </v>
   <v type="int" >       48      131      142      177      178 </v>
   <v type="int" >       48      131      169      177      178 </v>
   <v type="int" >       48      131      168      169      178 </v>
   <v type="int" >       48      132      143      144      179 </v>
   <v type="int" >       48      132      133      144      179 </v>
   <v type="int" >       48      132      133      167      179 </v>
   <v type="int" >       48      132      143      178      179 </v>
   <v type="int" >       48      132      168      178      179 </v>
   <v type="int" >       48      132      167      168      179 </v>
   <v type="int" >       24      133      133      144      180 </v>
   <v type="int" >       24      133      133      134      180 </v>
   <v type="int" >       48      133      134      166      180 </v>
   <v type="int" >       48      133      144      179      180 </v>
   <v type="int" >       48      133      167      179      180 </v>
   <v type="int" >       48      133      166      167      180 </v>
   <v type="int" >       24      134      166      166      180 </v>
   <v type="int" >       24      134      165      166      166 </v>
   <v type="int" >       24      135      136      136      145 </v>
   <v type="int" >       24      135      136      136      171 </v>
   <v type="int" >       48      136      145      146      181 </v>
   <v type="int" >       48      136      137      146      181 </v>
   <v type="int" >       48      136      137      172      181 </v>
   <v type="int" >       24      136      136      145      181 </v>
   <v type="int" >       24      136      136      171      181 </v>
   <v type="int" >       48      136      171      172      181 </v>
   <v type="int" >       48      137      146      147      182 </v>
   <v type="int" >       48      137      138      147      182 </v>
   <v type="int" >       48      137      138      173      182 </v>
   <v type="int" >       48      137      146      181      182 </v>
   <v type="int" >       48      137      172      181      182 </v>
   <v type="int" >       48      137      172      173      182 </v>
   <v type="int" >       48      138      147      148      183 </v>
   <v type="int" >       48      138      139      148      183 </v>
   <v type="int" >       48      138      139      174      183 </v>
   <v type="int" >       48      138      147      182      183 </v>
   <v type="int" >       48      138      173      182      183 </v>
   <v type="int" >       48      138      173      174      183 </v>
   <v type="int" >       48      139      148      149      184 </v>
   <v type="int" >       48      139      140      149      184 </v>
   <v type="int" >       48      139      140      175      184 </v>
   <v type="int" >       48      139      148      183      184 </v>
   <v type="int" >       48      139      174      183      184 </v>
   <v type="int" >       48      139      174      175      184 </v>
   <v type="int" >       48      140      149      150      185 </v>
   <v type="int" >       48      140      141      150      185 </v>
   <v type="int" >       48      140      141      176      185 </v>
   <v type="int" >       48      140      149      184      185 </v>
   <v type="int" >       48      140      175      184      185 </v>
   <v type="int" >       48      140      175      176      185 </v>
   <v type="int" >       48      141      150      151      186 </v>
   <v type="int" >       48      141      142      151      186 </v>
   <v type="int" >       48      141      142      177      186 </v>
   <v type="int" >       48      141      150      185      186 </v>
   <v type="int" >       48      141      176      185      186 </v>
   <v type="int" >       48      141      176      177      186 </v>
   <v type="int" >       48      142      151      152      187 </v>
   <v type="int" >       48      142      143      152      187 </v>
   <v type="int" >       48      142      143      178      187 </v>
   <v type="int" >       48      142      151      186      187 </v>
   <v type="int" >       48      142      177      186      187 </v>
   <v type="int" >       48      142      177      178      187 </v>
   <v type="int" >       24      143      143      152      188 </v>
   <v type="int" >       24      143      143      144      188 </v>
   <v type="int" >       48      143      144      179      188 </v>
   <v type="int" >       48      143      152      187      188 </v>
   <v type="int" >       48      143      178      187      188 </v>
   <v type="int" >       48      143      178      179      188 </v>
   <v type="int" >       24      144      179      179      188 </v>
   <v type="int" >       24      144      179      179      180 </v>
   <v type="int" >       24      145      146      146      153 </v>
   <v type="int" >       24      145      146      146      181 </v>
   <v type="int" >       48      146      153      154      189 </v>
   <v type="int" >       48      146      147      154      189 </v>
   <v type="int" >       48      146      147      182      189 </v>
   <v type="int" >       24      146      146      153      189 </v>
   <v type="int" >       24      146      146      181      189 </v>
   <v type="int" >       48      146      181      182      189 </v>
   <v type="int" >       48      147      154      155      190 </v>
   <v type="int" >       48      147      148      155      190 </v>
   <v type="int" >       48      147      148      183      190 </v>
   <v type="int" >       48      147      154      189      190 </v>
   <v type="int" >       48      147      182      189      190 </v>
   <v type="int" >       48      147      182      183      190 </v>
   <v type="int" >       48      148      155      156      191 </v>
   <v type="int" >       48      148      149      156      191 </v>
   <v type="int" >       48      148      149      184      191 </v>
   <v type="int" >       48      148      155      190      191 </v>
   <v type="int" >       48      148      183      190      191 </v>
   <v type="int" >       48      148      183      184      191 </v>
   <v type="int" >       48      149      156      157      192 </v>
   <v type="int" >       48      149      150      157      192 </v>
   <v type="int" >       48      149      150      185      192 </v>
   <v type="int" >       48      149      156      191      192 </v>
   <v type="int" >       48      149      184      191      192 </v>
   <v type="int" >       48      149      184      185      192 </v>
   <v type="int" >       48      150      157      158      193 </v>
   <v type="int" >       48      150      151      158      193 </v>
   <v type="int" >       48      150      151      186      193 </v>
   <v type="int" >       48      150      157      192      193 </v>
   <v type="int" >       48      150      185      192      193 </v>
   <v type="int" >       48      150      185      186      193 </v>
   <v type="int" >       24      151      151      158      194 </v>
   <v type="int" >       24      151      151      152      194 </v>
   <v type="int" >       48      151      152      187      194 </v>
   <v type="int" >       48      151      158      193      194 </v>
   <v type="int" >       48      151      186      193      194 </v>
   <v type="int" >       48      151      186      187      194 </v>
   <v type="int" >       24      152      187      187      194 </v>
   <v type="int" >       24      152      187      187      188 </v>
   <v type="int" >       24      153      154      154      159 </v>
   <v type="int" >       24      153      154      154      189 </v>
   <v type="int" >       48      154      159      160      195 </v>
   <v type="int" >       48      154      155      160      195 </v>
   <v type="int" >       48      154      155      190      195 </v>
   <v type="int" >       24      154      154      159      195 </v>
   <v type="int" >       24      154      154      189      195 </v>
   <v type="int" >       48      154      189      190      195 </v>
   <v type="int" >       48      155      160      161      196 </v>
   <v type="int" >       48      155      156      161      196 </v>
   <v type="int" >       48      155      156      191      196 </v>
   <v type="int" >       48      155      160      195      196 </v>
   <v type="int" >       48      155      190      195      196 </v>
   <v type="int" >       48      155      190      191      196 </v>
   <v type="int" >       48      156      161      162      197 </v>
   <v type="int" >       48      156      157      162      197 </v>
   <v type="int" >       48      156      157      192      197 </v>
   <v type="int" >       48      156      161      196      197 </v>
   <v type="int" >       48      156      191      196      197 </v>
   <v type="int" >       48      156      191      192      197 </v>
   <v type="int" >       24      157      157      162      198 </v>
   <v type="int" >       24      157      157      158      198 </v>
   <v type="int" >       48      157      158      193      198 </v>
   <v type="int" >       48      157      162      197      198 </v>
   <v type="int" >       48      157      192      197      198 </v>
   <v type="int" >       48      157      192      193      198 </v>
   <v type="int" >       24      158      193      193      198 </v>
   <v type="int" >       24      158      193      193      194 </v>
   <v type="int" >       24      159      160      160      163 </v>
   <v type="int" >       24      159      160      160      195 </v>
   <v type="int" >       48      160      163      164      199 </v>
   <v type="int" >       48      160      161      164      199 </v>
   <v type="int" >       48      160      161      196      199 </v>
   <v type="int" >       24      160      160      163      199 </v>
   <v type="int" >       24      160      160      195      199 </v>
   <v type="int" >       48      160      195      196      199 </v>
   <v type="int" >       24      161      161      164      200 </v>
   <v type="int" >       24      161      161      162      200 </v>
   <v type="int" >       48      161      162      197      200 </v>
   <v type="int" >       48      161      164      199      200 </v>
   <v type="int" >       48      161      196      199      200 </v>
   <v type="int" >       48      161      196      197      200 </v>
   <v type="int" >       24      162      197      197      200 </v>
   <v type="int" >       24      162      197      197      198 </v>
   <v type="int" >       12      163      163      164      164 </v>
   <v type="int" >       24      163      164      164      199 </v>
   <v type="int" >       12      164      164      199      199 </v>
   <v type="int" >       24      164      199      199      200 </v>
   <v type="int" >       24      165      166      166      171 </v>
   <v type="int" >       48      166      171      172      180 </v>
   <v type="int" >       48      166      167      172      180 </v>
   <v type="int" >       24      166      166      171      180 </v>
   <v type="int" >       48      167      172      173      179 </v>
   <v type="int" >       48      167      168      173      179 </v>
   <v type="int" >       48      167      172      179      180 </v>
   <v type="int" >       48      168      173      174      178 </v>
   <v type="int" >       48      168      169      174      178 </v>
   <v type="int" >       48      168      173      178      179 </v>
   <v type="int" >       48      169      174      175      177 </v>
   <v type="int" >       48      169      170      175      177 </v>
   <v type="int" >       48      169      174      177      178 </v>
   <v type="int" >       48      170      175      176      176 </v>
   <v type="int" >       24      170      170      176      176 </v>
   <v type="int" >       48      170      175      176      177 </v>
   <v type="int" >       24      171      172      172      181 </v>
   <v type="int" >       24      171      172      172      180 </v>
   <v type="int" >       48      172      181      182      201 </v>
   <v type="int" >       48      172      173      182      201 </v>
   <v type="int" >       48      172      173      179      201 </v>
   <v type="int" >       24      172      172      181      201 </v>
   <v type="int" >       24      172      172      180      201 </v>
   <v type="int" >       48      172      179      180      201 </v>
   <v type="int" >       48      173      182      183      202 </v>
   <v type="int" >       48      173      174      183      202 </v>
   <v type="int" >       48      173      174      178      202 </v>
   <v type="int" >       48      173      182      201      202 </v>
   <v type="int" >       48      173      179      201      202 </v>
   <v type="int" >       48      173      178      179      202 </v>
   <v type="int" >       48      174      183      184      203 </v>
   <v type="int" >       48      174      175      184      203 </v>
   <v type="int" >       48      174      175      177      203 </v>
   <v type="int" >       48      174      183      202      203 </v>
   <v type="int" >       48      174      178      202      203 </v>
   <v type="int" >       48      174      177      178      203 </v>
   <v type="int" >       48      175      184      185      204 </v>
   <v type="int" >       48      175      176      185      204 </v>
   <v type="int" >       48      175      176      176      204 </v>
   <v type="int" >       48      175      184      203      204 </v>
   <v type="int" >       48      175      177      203      204 </v>
   <v type="int" >       48      175      176      177      204 </v>
   <v type="int" >       48      176      185      186      204 </v>
   <v type="int" >       48      176      177      186      204 </v>
   <v type="int" >       48      176      185      204      204 </v>
   <v type="int" >       24      176      176      204      204 </v>
   <v type="int" >       48      177      186      187      203 </v>
   <v type="int" >       48      177      178      187      203 </v>
   <v type="int" >       48      177      186      203      204 </v>
   <v type="int" >       48      178      187      188      202 </v>
   <v type="int" >       48      178      179      188      202 </v>
   <v type="int" >       48      178      187      202      203 </v>
   <v type="int" >       24      179      179      188      201 </v>
   <v type="int" >       24      179      179      180      201 </v>
   <v type="int" >       48      179      188      201      202 </v>
   <v type="int" >       24      181      182      182      189 </v>
   <v type="int" >       24      181      182      182      201 </v>
   <v type="int" >       48      182      189      190      205 </v>
   <v type="int" >       48      182      183      190      205 </v>
   <v type="int" >       48      182      183      202      205 </v>
   <v type="int" >       24      182      182      189      205 </v>
   <v type="int" >       24      182      182      201      205 </v>
   <v type="int" >       48      182      201      202      205 </v>
   <v type="int" >       48      183      190      191      206 </v>
   <v type="int" >       48      183      184      191      206 </v>
   <v type="int" >       48      183      184      203      206 </v>
   <v type="int" >       48      183      190      205      206 </v>
   <v type="int" >       48      183      202      205      206 </v>
   <v type="int" >       48      183      202      203      206 </v>
   <v type="int" >       48      184      191      192      207 </v>
   <v type="int" >       48      184      185      192      207 </v>
   <v type="int" >       48      184      185      204      207 </v>
   <v type="int" >       48      184      191      206      207 </v>
   <v type="int" >       48      184      203      206      207 </v>
   <v type="int" >       48      184      203      204      207 </v>
   <v type="int" >       48      185      192      193      208 </v>
   <v type="int" >       48      185      186      193      208 </v>
   <v type="int" >       48      185      186      204      208 </v>
   <v type="int" >       48      185      192      207      208 </v>
   <v type="int" >       48      185      204      207      208 </v>
   <v type="int" >       48      185      204      204      208 </v>
   <v type="int" >       48      186      193      194      209 </v>
   <v type="int" >       48      186      187      194      209 </v>
   <v type="int" >       48      186      187      203      209 </v>
   <v type="int" >       48      186      193      208      209 </v>
   <v type="int" >       48      186      204      208      209 </v>
   <v type="int" >       48      186      203      204      209 </v>
   <v type="int" >       24      187      187      194      210 </v>
   <v type="int" >       24      187      187      188      210 </v>
   <v type="int" >       48      187      188      202      210 </v>
   <v type="int" >       48      187      194      209      210 </v>
   <v type="int" >       48      187      203      209      210 </v>
[...]
       </set>
       <set comment="band 2">
        <r>  0.0000  0.1950  0.0000 </r>
       </set>
       <set comment="band 3">
        <r>  0.1360  0.1615  0.0000 </r>
       </set>
       <set comment="band 4">
        <r>  0.0613  0.2005  0.0000 </r>
       </set>
       <set comment="band 5">
        <r>  0.0000  0.1030  0.0000 </r>
       </set>
      </set>
      <set comment="kpoint 181">
       <set comment="band 1">
        <r>  0.1957  0.0829  0.0000 </r>
       </set>
       <set comment="band 2">
        <r>  0.0000  0.1862  0.0000 </r>
       </set>
       <set comment="band 3">
        <r>  0.0447  0.1737  0.0000 </r>
       </set>
       <set comment="band 4">
        <r>  0.1506  0.1993  0.0000 </r>
       </set>
       <set comment="band 5">
        <r>  0.0000  0.1419  0.0000 </r>
       </set>
      </set>
      <set comment="kpoint 182">
       <set comment="band 1">
        <r>  0.1772  0.0988  0.0000 </r>
       </set>
       <set comment="band 2">
        <r>  0.0273  0.1874  0.0000 </r>
       </set>
       <set comment="band 3">
        <r>  0.0109  0.1600  0.0000 </r>
       </set>
       <set comment="band 4">
        <r>  0.2023  0.1932  0.0000 </r>
       </set>
       <set comment="band 5">
        <r>  0.0217  0.1381  0.0000 </r>
       </set>
      </set>
      <set comment="kpoint 183">
       <set comment="band 1">
        <r>  0.1548  0.1172  0.0000 </r>
       </set>
       <set comment="band 2">
        <r>  0.0626  0.1761  0.0000 </r>
       </set>
       <set comment="band 3">
        <r>  0.0184  0.1539  0.0000 </r>
       </set>
       <set comment="band 4">
        <r>  0.2009  0.1901  0.0000 </r>
       </set>
       <set comment="band 5">
        <r>  0.0457  0.1412  0.0000 </r>
       </set>
      </set>
      <set comment="kpoint 184">
       <set comment="band 1">
        <r>  0.1261  0.1402  0.0000 </r>
       </set>
       <set comment="band 2">
        <r>  0.0978  0.1590  0.0000 </r>
       </set>
       <set comment="band 3">
        <r>  0.0681  0.1491  0.0000 </r>
       </set>
       <set comment="band 4">
        <r>  0.1579  0.1871  0.0000 </r>
       </set>
       <set comment="band 5">
        <r>  0.0563  0.1458  0.0000 </r>
       </set>
      </set>
      <set comment="kpoint 185">
       <set comment="band 1">
        <r>  0.0422  0.1931  0.0000 </r>
       </set>
       <set comment="band 2">
        <r>  0.1811  0.1102  0.0000 </r>
       </set>
       <set comment="band 3">
        <r>  0.1003  0.1426  0.0000 </r>
       </set>
       <set comment="band 4">
        <r>  0.1327  0.1878  0.0000 </r>
       </set>
       <set comment="band 5">
        <r>  0.0587  0.1515  0.0000 </r>
       </set>
      </set>
      <set comment="kpoint 186">
       <set comment="band 1">
        <r>  0.1158  0.1450  0.0000 </r>
       </set>
       <set comment="band 2">
        <r>  0.0994  0.1633  0.0000 </r>
       </set>
       <set comment="band 3">
        <r>  0.1263  0.1331  0.0000 </r>
       </set>
       <set comment="band 4">
        <r>  0.1154  0.1901  0.0000 </r>
       </set>
       <set comment="band 5">
        <r>  0.0559  0.1595  0.0000 </r>
       </set>
      </set>
      <set comment="kpoint 187">
       <set comment="band 1">
        <r>  0.1488  0.1220  0.0000 </r>
       </set>
       <set comment="band 2">
        <r>  0.0443  0.1959  0.0000 </r>
       </set>
       <set comment="band 3">
        <r>  0.1571  0.1188  0.0000 </r>
       </set>
       <set comment="band 4">
        <r>  0.1014  0.1937  0.0000 </r>
       </set>
       <set comment="band 5">
        <r>  0.0493  0.1732  0.0000 </r>
       </set>
      </set>
      <set comment="kpoint 188">
       <set comment="band 1">
        <r>  0.1716  0.1029  0.0000 </r>
       </set>
       <set comment="band 2">
        <r>  0.0000  0.2152  0.0000 </r>
       </set>
       <set comment="band 3">
        <r>  0.1804  0.1138  0.0000 </r>
       </set>
       <set comment="band 4">
        <r>  0.0881  0.1976  0.0000 </r>
       </set>
       <set comment="band 5">
        <r>  0.0378  0.1946  0.0000 </r>
       </set>
      </set>
      <set comment="kpoint 189">
       <set comment="band 1">
        <r>  0.1674  0.1081  0.0000 </r>
       </set>
       <set comment="band 2">
        <r>  0.0000  0.1906  0.0000 </r>
       </set>
       <set comment="band 3">
        <r>  0.0326  0.1488  0.0000 </r>
       </set>
       <set comment="band 4">
        <r>  0.2037  0.2046  0.0000 </r>
       </set>
       <set comment="band 5">
        <r>  0.0000  0.1499  0.0000 </r>
       </set>
      </set>
      <set comment="kpoint 190">
       <set comment="band 1">
        <r>  0.1450  0.1261  0.0000 </r>
       </set>
       <set comment="band 2">
        <r>  0.0149  0.1909  0.0000 </r>
       </set>
       <set comment="band 3">
        <r>  0.0759  0.1461  0.0000 </r>
       </set>
       <set comment="band 4">
        <r>  0.1943  0.1807  0.0000 </r>
       </set>
       <set comment="band 5">
        <r>  0.0231  0.1409  0.0000 </r>
       </set>
      </set>
      <set comment="kpoint 191">
       <set comment="band 1">
        <r>  0.1170  0.1490  0.0000 </r>
       </set>
       <set comment="band 2">
        <r>  0.0504  0.1809  0.0000 </r>
       </set>
       <set comment="band 3">
        <r>  0.1186  0.1312  0.0000 </r>
       </set>
       <set comment="band 4">
        <r>  0.1623  0.1779  0.0000 </r>
       </set>
       <set comment="band 5">
        <r>  0.0491  0.1386  0.0000 </r>
       </set>
      </set>
      <set comment="kpoint 192">
       <set comment="band 1">
        <r>  0.0714  0.1803  0.0000 </r>
       </set>
       <set comment="band 2">
        <r>  0.0946  0.1609  0.0000 </r>
       </set>
       <set comment="band 3">
        <r>  0.1507  0.1137  0.0000 </r>
       </set>
       <set comment="band 4">
        <r>  0.1418  0.1799  0.0000 </r>
       </set>
       <set comment="band 5">
        <r>  0.0607  0.1410  0.0000 </r>
       </set>
      </set>
      <set comment="kpoint 193">
       <set comment="band 1">
        <r>  0.0824  0.1653  0.0000 </r>
       </set>
       <set comment="band 2">
        <r>  0.0628  0.1944  0.0000 </r>
       </set>
       <set comment="band 3">
        <r>  0.1899  0.0887  0.0000 </r>
       </set>
       <set comment="band 4">
        <r>  0.1272  0.1838  0.0000 </r>
       </set>
       <set comment="band 5">
        <r>  0.0630  0.1466  0.0000 </r>
       </set>
      </set>
      <set comment="kpoint 194">
       <set comment="band 1">
        <r>  0.1231  0.1405  0.0000 </r>
       </set>
       <set comment="band 2">
        <r>  0.0000  0.2322  0.0000 </r>
       </set>
       <set comment="band 3">
        <r>  0.2230  0.0698  0.0000 </r>
       </set>
       <set comment="band 4">
        <r>  0.1142  0.1883  0.0000 </r>
       </set>
       <set comment="band 5">
        <r>  0.0586  0.1561  0.0000 </r>
       </set>
      </set>
      <set comment="kpoint 195">
       <set comment="band 1">
        <r>  0.1293  0.1401  0.0000 </r>
       </set>
       <set comment="band 2">
        <r>  0.0971  0.1307  0.0000 </r>
       </set>
       <set comment="band 3">
        <r>  0.0000  0.1937  0.0000 </r>
       </set>
       <set comment="band 4">
        <r>  0.1852  0.1937  0.0000 </r>
       </set>
       <set comment="band 5">
        <r>  0.0000  0.1555  0.0000 </r>
       </set>
      </set>
      <set comment="kpoint 196">
       <set comment="band 1">
        <r>  0.0974  0.1667  0.0000 </r>
       </set>
       <set comment="band 2">
        <r>  0.0951  0.1263  0.0000 </r>
       </set>
       <set comment="band 3">
        <r>  0.0658  0.1798  0.0000 </r>
       </set>
       <set comment="band 4">
        <r>  0.1790  0.1736  0.0000 </r>
       </set>
       <set comment="band 5">
        <r>  0.0243  0.1427  0.0000 </r>
       </set>
      </set>
      <set comment="kpoint 197">
       <set comment="band 1">
        <r>  0.0480  0.2057  0.0000 </r>
       </set>
       <set comment="band 2">
        <r>  0.0120  0.1730  0.0000 </r>
       </set>
       <set comment="band 3">
        <r>  0.2384  0.0869  0.0000 </r>
       </set>
       <set comment="band 4">
        <r>  0.1553  0.1741  0.0000 </r>
       </set>
       <set comment="band 5">
        <r>  0.0509  0.1371  0.0000 </r>
       </set>
      </set>
      <set comment="kpoint 198">
       <set comment="band 1">
        <r>  0.0000  0.2450  0.0000 </r>
       </set>
       <set comment="band 2">
        <r>  0.0372  0.1856  0.0000 </r>
       </set>
       <set comment="band 3">
        <r>  0.2851  0.0262  0.0000 </r>
       </set>
       <set comment="band 4">
        <r>  0.1397  0.1784  0.0000 </r>
       </set>
       <set comment="band 5">
        <r>  0.0619  0.1391  0.0000 </r>
       </set>
      </set>
      <set comment="kpoint 199">
       <set comment="band 1">
        <r>  0.0569  0.2040  0.0000 </r>
       </set>
       <set comment="band 2">
        <r>  0.1762  0.0730  0.0000 </r>
       </set>
       <set comment="band 3">
        <r>  0.0000  0.1948  0.0000 </r>
       </set>
       <set comment="band 4">
        <r>  0.1827  0.1893  0.0000 </r>
       </set>
       <set comment="band 5">
        <r>  0.0000  0.1589  0.0000 </r>
       </set>
      </set>
      <set comment="kpoint 200">
       <set comment="band 1">
        <r>  0.0000  0.2540  0.0000 </r>
       </set>
       <set comment="band 2">
        <r>  0.2094  0.0377  0.0000 </r>
       </set>
       <set comment="band 3">
        <r>  0.0543  0.1842  0.0000 </r>
       </set>
       <set comment="band 4">
        <r>  0.1764  0.1715  0.0000 </r>
       </set>
       <set comment="band 5">
        <r>  0.0245  0.1435  0.0000 </r>
       </set>
      </set>
      <set comment="kpoint 201">
       <set comment="band 1">
        <r>  0.1857  0.0913  0.0000 </r>
       </set>
       <set comment="band 2">
        <r>  0.0000  0.2022  0.0000 </r>
       </set>
       <set comment="band 3">
        <r>  0.1304  0.1483  0.0000 </r>
       </set>
       <set comment="band 4">
        <r>  0.1116  0.1863  0.0000 </r>
       </set>
       <set comment="band 5">
        <r>  0.0000  0.1203  0.0000 </r>
       </set>
      </set>
      <set comment="kpoint 202">
       <set comment="band 1">
        <r>  0.1654  0.1086  0.0000 </r>
       </set>
       <set comment="band 2">
        <r>  0.0364  0.1927  0.0000 </r>
       </set>
       <set comment="band 3">
        <r>  0.1094  0.1452  0.0000 </r>
       </set>
       <set comment="band 4">
        <r>  0.1349  0.1794  0.0000 </r>
       </set>
       <set comment="band 5">
        <r>  0.0142  0.1374  0.0000 </r>
       </set>
      </set>
      <set comment="kpoint 203">
       <set comment="band 1">
        <r>  0.1399  0.1291  0.0000 </r>
       </set>
       <set comment="band 2">
        <r>  0.0805  0.1710  0.0000 </r>
       </set>
       <set comment="band 3">
        <r>  0.0707  0.1530  0.0000 </r>
       </set>
       <set comment="band 4">
        <r>  0.1666  0.1731  0.0000 </r>
       </set>
       <set comment="band 5">
        <r>  0.0231  0.1712  0.0000 </r>
       </set>
      </set>
      <set comment="kpoint 204">
       <set comment="band 1">
        <r>  0.0952  0.1598  0.0000 </r>
       </set>
       <set comment="band 2">
        <r>  0.1321  0.1401  0.0000 </r>
       </set>
       <set comment="band 3">
        <r>  0.0170  0.1578  0.0000 </r>
       </set>
       <set comment="band 4">
        <r>  0.2194  0.1678  0.0000 </r>
       </set>
       <set comment="band 5">
        <r>  0.0128  0.2375  0.0000 </r>
       </set>
      </set>
      <set comment="kpoint 205">
       <set comment="band 1">
        <r>  0.1575  0.1155  0.0000 </r>
       </set>
       <set comment="band 2">
        <r>  0.0000  0.2075  0.0000 </r>
       </set>
       <set comment="band 3">
        <r>  0.0527  0.1469  0.0000 </r>
       </set>
       <set comment="band 4">
        <r>  0.2346  0.1595  0.0000 </r>
       </set>
       <set comment="band 5">
        <r>  0.0000  0.1289  0.0000 </r>
       </set>
      </set>
      <set comment="kpoint 206">
       <set comment="band 1">
        <r>  0.1332  0.1355  0.0000 </r>
       </set>
       <set comment="band 2">
        <r>  0.0352  0.1952  0.0000 </r>
       </set>
       <set comment="band 3">
        <r>  0.0122  0.1565  0.0000 </r>
       </set>
       <set comment="band 4">
        <r>  0.2811  0.1379  0.0000 </r>
       </set>
       <set comment="band 5">
        <r>  0.0166  0.1371  0.0000 </r>
       </set>
      </set>
      <set comment="kpoint 207">
       <set comment="band 1">
        <r>  0.0990  0.1594  0.0000 </r>
       </set>
       <set comment="band 2">
        <r>  0.0822  0.1711  0.0000 </r>
       </set>
       <set comment="band 3">
        <r>  0.0197  0.1581  0.0000 </r>
       </set>
       <set comment="band 4">
        <r>  0.2706  0.1345  0.0000 </r>
       </set>
       <set comment="band 5">
        <r>  0.0307  0.1542  0.0000 </r>
       </set>
      </set>
      <set comment="kpoint 208">
       <set comment="band 1">
        <r>  0.0373  0.1927  0.0000 </r>
       </set>
       <set comment="band 2">
        <r>  0.1421  0.1416  0.0000 </r>
       </set>
       <set comment="band 3">
        <r>  0.0831  0.1407  0.0000 </r>
       </set>
       <set comment="band 4">
        <r>  0.2126  0.1464  0.0000 </r>
       </set>
       <set comment="band 5">
        <r>  0.0325  0.1745  0.0000 </r>
       </set>
      </set>
      <set comment="kpoint 209">
       <set comment="band 1">
        <r>  0.1149  0.1468  0.0000 </r>
       </set>
       <set comment="band 2">
        <r>  0.0469  0.1972  0.0000 </r>
       </set>
       <set comment="band 3">
        <r>  0.1338  0.1193  0.0000 </r>
       </set>
       <set comment="band 4">
        <r>  0.1762  0.1574  0.0000 </r>
       </set>
       <set comment="band 5">
        <r>  0.0261  0.2025  0.0000 </r>
       </set>
      </set>
      <set comment="kpoint 210">
       <set comment="band 1">
        <r>  0.1434  0.1270  0.0000 </r>
       </set>
       <set comment="band 2">
        <r>  0.0000  0.2211  0.0000 </r>
       </set>
       <set comment="band 3">
        <r>  0.1662  0.1068  0.0000 </r>
       </set>
       <set comment="band 4">
        <r>  0.1530  0.1676  0.0000 </r>
       </set>
       <set comment="band 5">
        <r>  0.0000  0.1096  0.0000 </r>
       </set>
      </set>
      <set comment="kpoint 211">
       <set comment="band 1">
        <r>  0.1200  0.1470  0.0000 </r>
       </set>
       <set comment="band 2">
        <r>  0.0000  0.2110  0.0000 </r>
       </set>
       <set comment="band 3">
        <r>  0.0375  0.1491  0.0000 </r>
       </set>
       <set comment="band 4">
        <r>  0.2980  0.1238  0.0000 </r>
       </set>
       <set comment="band 5">
        <r>  0.0000  0.1346  0.0000 </r>
       </set>
      </set>
      <set comment="kpoint 212">
       <set comment="band 1">
        <r>  0.0859  0.1725  0.0000 </r>
       </set>
       <set comment="band 2">
        <r>  0.0183  0.2008  0.0000 </r>
       </set>
       <set comment="band 3">
        <r>  0.0933  0.1342  0.0000 </r>
       </set>
       <set comment="band 4">
        <r>  0.2730  0.1161  0.0000 </r>
       </set>
       <set comment="band 5">
        <r>  0.0178  0.1377  0.0000 </r>
       </set>
      </set>
      <set comment="kpoint 213">
       <set comment="band 1">
        <r>  0.0246  0.2118  0.0000 </r>
       </set>
       <set comment="band 2">
        <r>  0.0694  0.1792  0.0000 </r>
       </set>
       <set comment="band 3">
        <r>  0.1603  0.0986  0.0000 </r>
       </set>
       <set comment="band 4">
        <r>  0.2239  0.1315  0.0000 </r>
       </set>
       <set comment="band 5">
        <r>  0.0333  0.1499  0.0000 </r>
       </set>
      </set>
      <set comment="kpoint 214">
       <set comment="band 1">
        <r>  0.0823  0.1674  0.0000 </r>
       </set>
       <set comment="band 2">
        <r>  0.0000  0.2362  0.0000 </r>
       </set>
       <set comment="band 3">
        <r>  0.2015  0.0714  0.0000 </r>
       </set>
       <set comment="band 4">
        <r>  0.1941  0.1449  0.0000 </r>
       </set>
       <set comment="band 5">
        <r>  0.0360  0.1674  0.0000 </r>
       </set>
      </set>
      <set comment="kpoint 215">
       <set comment="band 1">
        <r>  0.0510  0.2052  0.0000 </r>
       </set>
       <set comment="band 2">
        <r>  0.1365  0.0957  0.0000 </r>
       </set>
       <set comment="band 3">
        <r>  0.0000  0.2123  0.0000 </r>
       </set>
       <set comment="band 4">
        <r>  0.2731  0.1180  0.0000 </r>
       </set>
       <set comment="band 5">
        <r>  0.0000  0.1379  0.0000 </r>
       </set>
      </set>
      <set comment="kpoint 216">
       <set comment="band 1">
        <r>  0.0000  0.2469  0.0000 </r>
       </set>
       <set comment="band 2">
        <r>  0.0868  0.1120  0.0000 </r>
       </set>
       <set comment="band 3">
        <r>  0.1310  0.1492  0.0000 </r>
       </set>
       <set comment="band 4">
        <r>  0.2552  0.1150  0.0000 </r>
       </set>
       <set comment="band 5">
        <r>  0.0185  0.1372  0.0000 </r>
       </set>
      </set>
      <set comment="kpoint 217">
       <set comment="band 1">
        <r>  0.1054  0.1551  0.0000 </r>
       </set>
       <set comment="band 2">
        <r>  0.0000  0.2251  0.0000 </r>
       </set>
       <set comment="band 3">
        <r>  0.0634  0.1326  0.0000 </r>
       </set>
       <set comment="band 4">
        <r>  0.3072  0.1063  0.0000 </r>
       </set>
       <set comment="band 5">
        <r>  0.0000  0.1150  0.0000 </r>
       </set>
      </set>
      <set comment="kpoint 218">
       <set comment="band 1">
        <r>  0.0639  0.1820  0.0000 </r>
       </set>
       <set comment="band 2">
        <r>  0.0475  0.1984  0.0000 </r>
       </set>
       <set comment="band 3">
        <r>  0.0157  0.1559  0.0000 </r>
       </set>
       <set comment="band 4">
        <r>  0.3564  0.0799  0.0000 </r>
       </set>
       <set comment="band 5">
        <r>  0.0056  0.1738  0.0000 </r>
       </set>
      </set>
      <set comment="kpoint 219">
       <set comment="band 1">
        <r>  0.0411  0.2063  0.0000 </r>
       </set>
       <set comment="band 2">
        <r>  0.0000  0.2263  0.0000 </r>
       </set>
       <set comment="band 3">
        <r>  0.0418  0.1383  0.0000 </r>
       </set>
       <set comment="band 4">
        <r>  0.3998  0.0461  0.0000 </r>
       </set>
       <set comment="band 5">
        <r>  0.0000  0.1190  0.0000 </r>
       </set>
      </set>
      <set comment="kpoint 220">
       <set comment="band 1">
        <r>  0.0221  0.2070  0.0000 </r>
       </set>
       <set comment="band 2">
        <r>  0.0000  0.2382  0.0000 </r>
       </set>
       <set comment="band 3">
        <r>  0.0757  0.1208  0.0000 </r>
       </set>
       <set comment="band 4">
        <r>  0.3889  0.0486  0.0000 </r>
       </set>
       <set comment="band 5">
        <r>  0.0106  0.1454  0.0000 </r>
       </set>
      </set>
     </set>
    </set>
   </array>
  </projected>
 </calculation>
 <structure name="finalpos" >
  <crystal>
   <varray name="basis" >
    <v>       0.00000000       1.98750000       1.98750000 </v>
    <v>       1.98750000       0.00000000       1.98750000 </v>
    <v>       1.98750000       1.98750000       0.00000000 </v>
   </varray>
   <i name="volume">     15.70187109 </i>
   <varray name="rec_basis" >
    <v>      -0.25157233       0.25157233       0.25157233 </v>
    <v>       0.25157233      -0.25157233       0.25157233 </v>
    <v>       0.25157233       0.25157233      -0.25157233 </v>
   </varray>
  </crystal>
  <varray name="positions" >
   <v>       0.00000000       0.00000000       0.00000000 </v>
  </varray>
 </structure>
</modeling>
